[Molden Format]
[Molpro variables]
_NUMVAR=  813.0000000000000    
_AVOGAD= 0.6022136736000000E+24
_BOLTZ= 0.1380658000000000E-22
_CLIGHT=  29979245800.00000    
_EV2006= 0.3674930886769165E-01
_EV= 0.3674932534394180E-01
_ENULL= 0.8854187817000000E-11
_KJOULE= 0.3808798324128737E-03
_KJOULE/MOL= 0.3808798324128737E-03
_CM= 0.4556335267302901E-05
_CM-1= 0.4556335267302901E-05
_DEB2SI= 0.3335641000000000E-29
_AMU2AU=  1822.888390000000    
_KCAL= 0.1593601117815568E-02
_KCAL/MOL= 0.1593601117815568E-02
_KELVIN2006= 0.3166828861084835E-05
_KELVIN= 0.3166814820820034E-05
_JOULE= 0.4359748200000000E-17
_HERTZ2006= 0.1519829850815779E-15
_HERTZ= 0.1519829846011223E-15
_HZ2006= 0.1519829850815779E-15
_HZ= 0.1519829846011223E-15
_JPCAL=  4.184000000000000    
_PLANCK= 0.6626075540000000E-33
_TOA2006= 0.5291772490000000    
_TOA= 0.5291772090000000    
_TOANG2006= 0.5291772490000000    
_TOANG= 0.5291772090000000    
_TORAD= 0.1745329251994330E-01
_TOCM=  219474.6306700000    
_TODEBYE=  2.541580000000000    
_TOEV2006=  27.21139610000000    
_TOE= 0.4803242000000000E-09
_TOEV=  27.21138390000000    
_TOHERTZ2006=  6579683899900000.    
_TOHERTZ=  6579683920700000.    
_TOHZ2006=  6579683899900000.    
_TOHZ=  6579683920700000.    
_TOK2006=  315773.3000000000    
_TOK=  315774.7000000000    
_TOKCAL=  627.5096000000000    
_TOKELVIN2006=  315773.3000000000    
_TOKELVIN=  315774.7000000000    
_TOKJ=  2625.500000000000    
_TOKJOULE=  2625.500000000000    
_TOKG= 0.1660565586000000E-26
_ANG2006=  1.889725988578923    
_ANG=  1.889726131421507    
_ANGSTROM2006=  1.889725988578923    
_ANGSTROM=  1.889726131421507    
_RPAREF=  0.000000000000000    
_RPADISS=  0.000000000000000    
_IGNORE_UNDEF=  2.000000000000000    
_STRICTCHECK=  0.000000000000000    
_SEW_ONEEL=  0.000000000000000    
_CPPDONE=FALSE
_DKROLL_DONE=  0.000000000000000    
_FOCKDONE=TRUE
_GRADONE=FALSE
_HESSDONE=TRUE
_INTDONE=TRUE
_SCFDONE=TRUE
_MODUL_BLOCK=FALSE
_MODUL_CUDA=FALSE
_MODUL_SLATER=FALSE
_MODUL_MRCC=FALSE
_MODUL_NBO6=FALSE
_MODUL_NECI=TRUE
_MODUL_AIMS=TRUE
_MRCC_EXEC=
_FITC_AO_SAVED=  0.000000000000000    
_FITC_MO_SAVED=  0.000000000000000    
_SHARED_FS=TRUE
_LSTYP=SEWARD
_INTYP=INTS
_GEOMTYP=ZMAT
_GRADTYP=ALASKA
_DIRECT=FALSE
_DKHO= -1.000000000000000    
_SYNCM=  0.000000000000000    
_BASIS=6-31++G**
_ZORIENT=  1.000000000000000    
_NELEC=  42.00000000000000    
!SPIN=  0.000000000000000    
_OPTCONV= 0.3072799262807454E-04
_QSDSTEP=  0.000000000000000    
_QSDIRC=  0.000000000000000    
_PROGRAM=FREQ
_CPUSTEP=  0.000000000000000    
_SYSSTEP=  0.000000000000000    
_WALLSTEP=  0.000000000000000    
!DFMP2=  0.000000000000000    
!DFSCF=  0.000000000000000    
!SCSGRD=  0.000000000000000    
_BASINP=  610.0000000000000    
_CPUTOT=  3452.720000000000    
_CPUCCSD=  0.000000000000000    
_SYSCCSD= 0.1999999999999602E-01
_WALLCCSD= 0.4999999888241291E-01
_CPUF12=  0.000000000000000    
_SYSF12=  0.000000000000000    
_WALLF12=  0.000000000000000    
_CPUF12B=  0.000000000000000    
_SYSF12B=  0.000000000000000    
_WALLF12B=  0.000000000000000    
_CPUTRANS=  1.809999999999945    
_SYSTRANS= 0.1099999999999994    
_WALLTRANS=  2.270000001415610    
_DFTEXFAC=  1.000000000000000    
_DMX=-0.2742248530703097    
_DMY= 0.8905133781035319E-05
_DMZ= 0.1970379541089837E-06
_DMX_SCF=-0.2530556919012446    
_DMY_SCF= 0.8214120929896833E-05
_DMZ_SCF= 0.2145112195715257E-06
_FREQUENCIES= -7.730300558981090    
_EHOMO=-0.3057906033798279    
_ELUMO= 0.4189416191623821E-01
_EMP2= -231.4529434579509    
_EMP2_SING=-0.4944622530583154    
_EMP2_TRIP=-0.2971451205430209    
_EMP2_SCS= -231.4395810852463    
_ECSING=-0.4944622530583160    
_ECTRIP=-0.2971451205430204    
_ENERGC= -231.4529434579509    
_ENERG_CC=  0.000000000000000    
_ENERG_CV=  0.000000000000000    
_ENERG_VV=-0.7916073736013363    
_ENERGR= -230.6613360843496    
_ENERGY= -231.4529434579509    
_ENUC=  200.3355569572782    
_FREQSTEP=  73.00000000000000    
_GRADENERG= -231.4529425100775    
_GRADEXFAC=  9999.000000000000    
_GRADMETHOD=  8.000000000000000    
_NMRMETHOD=  0.000000000000000    
_GRADRECORD=TRUE
_VIRIAL= 0.1964340789443235E-04
!GRID_FREEZE= -1.000000000000000    
_GTOTAL= -231.3836507035165    
_HTOTAL= -231.3502707633925    
_ITERATIONS=  1.000000000000000    
_LASTNELEC=  42.00000000000000    
_LASTSPIN=  0.000000000000000    
_LASTSYM=  1.000000000000000    
_MPP_PROG=  0.000000000000000    
_NPROC_MPP=  1.000000000000000    
_NPROC_MPPX=  1.000000000000000    
_NPROC_SMP=  1.000000000000000    
_NUMSTEP=  0.000000000000000    
_OPTCONVMX= 0.2250381464996565E-04
_OPTCONVRMS= 0.8870407407506629E-05
_OPTGRAD= 0.1317483086167596E-04
_OPTGRADMX= 0.1242380495846557E-04
_OPTGRADRMS= 0.4391610287225320E-06
_OPTSTEP=  4.000000000000000    
_ORBITAL=  2100.200000000000    
_PI=  3.141592653589793    
_ECDIAG=-0.1081155231572027    
_EPDIAG=-0.1081155231572027    
_SEIG_MIN= 0.3700284699772480E-05
_SEWPROP=TRUE
_STATUS=  1.000000000000000    
_SYSTOT=  110.3700000000000    
_T1DIAG=  0.000000000000000    
_VERSION=  2012001.000000000    
_WALLTOT=  3741.060000000000    
_ZPE= 0.9699811443592361E-01
_DATE=24-Sep-20
_LASTORB=RHF
_MACHINE=Linux-3.10.0-957.el7.x86_64/bhd0011(x86_64) 64 bit serial version
_METHODC=MP2
_OUTPUT=/gpfs/fs2/scratch/bweight/qd-pldm/runs/Fulvene/InitConditions/Fulvene.xml
_PGROUP=C1
_TIME=18:39:59
_ANSATZ=
_LIBMOL=/scratch/bweight/Molpro/Install/bin/../lib/
!VIBCNT=  0.000000000000000    
!RGHFCNT=  0.000000000000000    
!SURFREC=  0.000000000000000    
!POLYREC=  0.000000000000000    
!DIPREC=  0.000000000000000    
!VSCFREC=  0.000000000000000    
!VCIREC=  0.000000000000000    
!PVCIREC=  0.000000000000000    
!VMP2REC=  0.000000000000000    
!VMCSCFREC=  0.000000000000000    
!VMRCIREC=  0.000000000000000    
!VIBINFO=  0.000000000000000    
!GAREC=  0.000000000000000    
!SCFORB=  21002.00000000000    
!CIOCC=  21.00000000000000    
!CICORE=  6.000000000000000    
!CICLOS=  21.00000000000000    
!CIISTSYM=  1.000000000000000    
!CIISTMS2=  0.000000000000000    
!CIISTNEL=  30.00000000000000    
!NEWMOL=  0.000000000000000    
!NEWSYM=  0.000000000000000    
_SLFILES=slscratch
_NGSSTO=  9.000000000000000    
_SIN=SIN
_COS=COS
_TAN=TAN
_ACOS=ACOS
_ASIN=ASIN
_ATAN=ATAN
_COSH=COSH
_SINH=SINH
_TANH=TANH
_ABS=ABS
_MOD=MOD
_ERF=ERF
_REFC=REFC
_ERFC=ERFC
_HYPOT=HYPOT
_J0=J0
_J1=J1
_JN=JN
_GAMMA=GAMMA
_LGAMMA=LGAMMA
_Y0=Y0
_Y1=Y1
_YN=YN
_EXP=EXP
_LOG=LOG
_LOG10=LOG10
_SQRT=SQRT
_INT=INT
_NINT=NINT
_MAX=MAX
_MIN=MIN
_COSMO=  0.000000000000000    
_COSMOIT=  0.000000000000000    
_COSMOES=  0.000000000000000    
_COSMOEDS=  0.000000000000000    
_COSMOEC=  0.000000000000000    
_COSMOEDCORR=  0.000000000000000    
_FEPSI=  1.000000000000000    
_SL_IsMM=  0.000000000000000    
_SL_NSYM=  1.000000000000000    
_SL_System_BitSw=  0.000000000000000    
_SL_Unique_atoms=  0.000000000000000    
_SL_GRAD=  0.000000000000000    
_SL_MAXUPD_Hess=  5.000000000000000    
_SL_N_PRINT_COD=  5.000000000000000    
_SL_PRINT_CODES=  0.000000000000000    
_SL_BasType=  0.000000000000000    
_SL_Energy_Pred=  0.000000000000000    
_SL_New_Coords=  0.000000000000000    
_SL_Total_Nuclea=  0.000000000000000    
_SL_Highest_Mltp=  0.000000000000000    
_SL_Ref_Geom=  0.000000000000000    
_SL_Symmetry_ope=  1.000000000000000    
_SL_agrad=  0.000000000000000    
_SL_GrdMax=  0.000000000000000    
_SL_GrdNorm=  0.000000000000000    
_SL_GrdRMS=  0.000000000000000    
_SL_Hss_Q=  0.000000000000000    
_SL_Hss_X=  0.000000000000000    
_SL_BMxOld=  0.000000000000000    
_SL_KtB=  0.000000000000000    
!LATTICE= -1.000000000000000    
!NEWLATTICE=  0.000000000000000    
!LATGRAD_VAR=FALSE
!SEW_LATTICE=  1.000000000000000    
!LOCAL=  0.000000000000000    
!SAVEDOM= -1.000000000000000    
!RESTDOM= -1.000000000000000    
!SAVEDOM_HF= -1.000000000000000    
!RESTDOM_HF= -1.000000000000000    
!HESSREC=  5301.200000000000    
!FREQREC=  5401.200000000000    
!NMODREC=  5451.200000000000    
!GTASKS=  0.000000000000000    
!HTASKS=  5500.200000000000    
!THRCHG= 0.1000000000000000    
!DEBUG= -1.000000000000000    
!CFIT_CPHF=  0.000000000000000    
!RDOMAUX_CPHF=  5.000000000000000    
!THRAO_CPHF= 0.9999999999999999E-11
!THRMO_CPHF= 0.9999999999999999E-11
!THROV_CPHF= 0.1000000000000000E-11
!THRSW_CPHF= 0.1000000000000000E-09
!THRPROD_CPHF= 0.9999999999999999E-11
!THRAOPR_CPHF= 0.1000000000000000E-11
!CFIT_SCFGRD=  0.000000000000000    
!RDOMAUX_SCFGRD=  7.000000000000000    
!THRAO_SCFGRD= 0.9999999999999999E-11
!THRMO_SCFGRD= 0.9999999999999999E-11
!THROV_SCFGRD= 0.1000000000000000E-11
!THRSW_SCFGRD= 0.1000000000000000E-09
!THRPROD_SCFGRD= 0.9999999999999999E-11
!THRAOPR_SCFGRD= 0.1000000000000000E-11
!LOCFIT_SCF=  0.000000000000000    
!LOCFIT_MP2= -1.000000000000000    
_RIDOM=  0.000000000000000    
!CC2_METHOD=  0.000000000000000    
_BASIS2006=FALSE
_SVDDEL= -1.000000000000000    
_SVDDELA= -1.000000000000000    
_SVDDELP= -1.000000000000000    
_SVDDELF= -1.000000000000000    
_SVDDELS= -1.000000000000000    
_SVDDEL_ABS= -1.000000000000000    
_SVDDELA_ABS= -1.000000000000000    
_SVDDELP_ABS= -1.000000000000000    
_SVDDELF_ABS= -1.000000000000000    
_SVDDELS_ABS= -1.000000000000000    
_MAXBASIS=  0.000000000000000    
!OPT_CONICAL=  0.000000000000000    
!CLEARSP_JGRID=  0.000000000000000    
_4EXT_NDISKS=  1.000000000000000    
!ZMP=  0.000000000000000    
_MAXIT_ZMP=  500.0000000000000    
_MAXDIS_ZMP=  100.0000000000000    
_ACCU_ZMP=  14.00000000000000    
_SHIFTA_ZMP= -100.0000000000000    
!EMBEDFLAG=  1.000000000000000    
!EMBED=FALSE
!EMBED_F12=FALSE
!EMBEDNUC=  0.000000000000000    
_EMBEDENERGY=  0.000000000000000    
_KSPACETIME=  0.000000000000000    
_RSPACETIME=  0.000000000000000    
!EMBED_DFC=FALSE
!NUM_VOIDS=  0.000000000000000    
_IBODY=  0.000000000000000    
_EMBE_TOTAL=  0.000000000000000    
_EMBE_HF=  0.000000000000000    
_EMBE_CORR=  0.000000000000000    
!EDFT=  0.000000000000000    
_IFASTLATGRAD=  0.000000000000000    
_SINDEX=  0.000000000000000    
GEOMTYP=XYZ
GX1= 0.1204055491104036    
GY1=  1.178949553629489    
GZ1= 0.2797860978393310E-06
GX2=  1.410324494083018    
GY2= 0.7348358439168736    
GZ2= 0.1456855559349435E-06
GX3=  1.410276742413587    
GY3=-0.7349610925218337    
GZ3=-0.1591040536345553E-05
GX4= 0.1203289578718072    
GY4= -1.178991027635528    
GZ4=-0.2386540326947302E-05
GX5=-0.2233177633307132    
GY5=  2.203839692536849    
GZ5= 0.1383821033012177E-05
GX6=  2.299215768074801    
GY6=  1.351088038883567    
GZ6= 0.1130911161758251E-05
GX7=  2.299128013327682    
GY7= -1.351270967706748    
GZ7=-0.1973463829775535E-05
GX8=-0.2234608733396646    
GY8= -2.203858859549209    
GZ8=-0.3717940086367562E-05
GX9=-0.7561396887233721    
GY9= 0.7734584083813126E-05
GZ9=-0.1347689185712473E-05
GX10= -2.109355244995837    
GY10= 0.5157950314558810E-04
GZ10=-0.7038525524057440E-06
GX11= -2.671263019037780    
GY11= 0.9261687887184841    
GZ11= 0.4452210527108175E-06
GX12= -2.671322935453934    
GY12=-0.9260292843591759    
GZ12=-0.1664898383694006E-05
[Atoms] Angs
C     1    6         0.1204055491        1.1789495536        0.0000002798
C     2    6         1.4103244941        0.7348358439        0.0000001457
C     3    6         1.4102767424       -0.7349610925       -0.0000015910
C     4    6         0.1203289579       -1.1789910276       -0.0000023865
H     5    1        -0.2233177633        2.2038396925        0.0000013838
H     6    1         2.2992157681        1.3510880389        0.0000011309
H     7    1         2.2991280133       -1.3512709677       -0.0000019735
H     8    1        -0.2234608733       -2.2038588595       -0.0000037179
C     9    6        -0.7561396887        0.0000077346       -0.0000013477
C    10    6        -2.1093552450        0.0000515795       -0.0000007039
H    11    1        -2.6712630190        0.9261687887        0.0000004452
H    12    1        -2.6713229355       -0.9260292844       -0.0000016649
[GTO]
  1 0
 s    6  1.00
  0.3047524900D+04  0.1834737091D-02
  0.4573695200D+03  0.1403732293D-01
  0.1039486800D+03  0.6884262165D-01
  0.2921015500D+02  0.2321844388D+00
  0.9286663000D+01  0.4679413476D+00
  0.3163927000D+01  0.3623119882D+00
 s    3  1.00
  0.7868272300D+01 -0.1193324245D+00
  0.1881288500D+01 -0.1608541561D+00
  0.5442492600D+00  0.1143456443D+01
 s    1  1.00
  0.1687144800D+00  0.1000000000D+01
 s    1  1.00
  0.4380000000D-01  0.1000000000D+01
 p    3  1.00
  0.7868272300D+01  0.6899906693D-01
  0.1881288500D+01  0.3164239597D+00
  0.5442492600D+00  0.7443082892D+00
 p    1  1.00
  0.1687144800D+00  0.1000000000D+01
 p    1  1.00
  0.4380000000D-01  0.1000000000D+01
 d    1  1.00
  0.8000000000D+00  0.1000000000D+01
  
  2 0
 s    6  1.00
  0.3047524900D+04  0.1834737091D-02
  0.4573695200D+03  0.1403732293D-01
  0.1039486800D+03  0.6884262165D-01
  0.2921015500D+02  0.2321844388D+00
  0.9286663000D+01  0.4679413476D+00
  0.3163927000D+01  0.3623119882D+00
 s    3  1.00
  0.7868272300D+01 -0.1193324245D+00
  0.1881288500D+01 -0.1608541561D+00
  0.5442492600D+00  0.1143456443D+01
 s    1  1.00
  0.1687144800D+00  0.1000000000D+01
 s    1  1.00
  0.4380000000D-01  0.1000000000D+01
 p    3  1.00
  0.7868272300D+01  0.6899906693D-01
  0.1881288500D+01  0.3164239597D+00
  0.5442492600D+00  0.7443082892D+00
 p    1  1.00
  0.1687144800D+00  0.1000000000D+01
 p    1  1.00
  0.4380000000D-01  0.1000000000D+01
 d    1  1.00
  0.8000000000D+00  0.1000000000D+01
  
  3 0
 s    6  1.00
  0.3047524900D+04  0.1834737091D-02
  0.4573695200D+03  0.1403732293D-01
  0.1039486800D+03  0.6884262165D-01
  0.2921015500D+02  0.2321844388D+00
  0.9286663000D+01  0.4679413476D+00
  0.3163927000D+01  0.3623119882D+00
 s    3  1.00
  0.7868272300D+01 -0.1193324245D+00
  0.1881288500D+01 -0.1608541561D+00
  0.5442492600D+00  0.1143456443D+01
 s    1  1.00
  0.1687144800D+00  0.1000000000D+01
 s    1  1.00
  0.4380000000D-01  0.1000000000D+01
 p    3  1.00
  0.7868272300D+01  0.6899906693D-01
  0.1881288500D+01  0.3164239597D+00
  0.5442492600D+00  0.7443082892D+00
 p    1  1.00
  0.1687144800D+00  0.1000000000D+01
 p    1  1.00
  0.4380000000D-01  0.1000000000D+01
 d    1  1.00
  0.8000000000D+00  0.1000000000D+01
  
  4 0
 s    6  1.00
  0.3047524900D+04  0.1834737091D-02
  0.4573695200D+03  0.1403732293D-01
  0.1039486800D+03  0.6884262165D-01
  0.2921015500D+02  0.2321844388D+00
  0.9286663000D+01  0.4679413476D+00
  0.3163927000D+01  0.3623119882D+00
 s    3  1.00
  0.7868272300D+01 -0.1193324245D+00
  0.1881288500D+01 -0.1608541561D+00
  0.5442492600D+00  0.1143456443D+01
 s    1  1.00
  0.1687144800D+00  0.1000000000D+01
 s    1  1.00
  0.4380000000D-01  0.1000000000D+01
 p    3  1.00
  0.7868272300D+01  0.6899906693D-01
  0.1881288500D+01  0.3164239597D+00
  0.5442492600D+00  0.7443082892D+00
 p    1  1.00
  0.1687144800D+00  0.1000000000D+01
 p    1  1.00
  0.4380000000D-01  0.1000000000D+01
 d    1  1.00
  0.8000000000D+00  0.1000000000D+01
  
  5 0
 s    3  1.00
  0.1873113700D+02  0.3349460400D-01
  0.2825394400D+01  0.2347269500D+00
  0.6401216900D+00  0.8137573301D+00
 s    1  1.00
  0.1612777600D+00  0.1000000000D+01
 s    1  1.00
  0.3600000000D-01  0.1000000000D+01
 p    1  1.00
  0.1100000000D+01  0.1000000000D+01
  
  6 0
 s    3  1.00
  0.1873113700D+02  0.3349460400D-01
  0.2825394400D+01  0.2347269500D+00
  0.6401216900D+00  0.8137573301D+00
 s    1  1.00
  0.1612777600D+00  0.1000000000D+01
 s    1  1.00
  0.3600000000D-01  0.1000000000D+01
 p    1  1.00
  0.1100000000D+01  0.1000000000D+01
  
  7 0
 s    3  1.00
  0.1873113700D+02  0.3349460400D-01
  0.2825394400D+01  0.2347269500D+00
  0.6401216900D+00  0.8137573301D+00
 s    1  1.00
  0.1612777600D+00  0.1000000000D+01
 s    1  1.00
  0.3600000000D-01  0.1000000000D+01
 p    1  1.00
  0.1100000000D+01  0.1000000000D+01
  
  8 0
 s    3  1.00
  0.1873113700D+02  0.3349460400D-01
  0.2825394400D+01  0.2347269500D+00
  0.6401216900D+00  0.8137573301D+00
 s    1  1.00
  0.1612777600D+00  0.1000000000D+01
 s    1  1.00
  0.3600000000D-01  0.1000000000D+01
 p    1  1.00
  0.1100000000D+01  0.1000000000D+01
  
  9 0
 s    6  1.00
  0.3047524900D+04  0.1834737091D-02
  0.4573695200D+03  0.1403732293D-01
  0.1039486800D+03  0.6884262165D-01
  0.2921015500D+02  0.2321844388D+00
  0.9286663000D+01  0.4679413476D+00
  0.3163927000D+01  0.3623119882D+00
 s    3  1.00
  0.7868272300D+01 -0.1193324245D+00
  0.1881288500D+01 -0.1608541561D+00
  0.5442492600D+00  0.1143456443D+01
 s    1  1.00
  0.1687144800D+00  0.1000000000D+01
 s    1  1.00
  0.4380000000D-01  0.1000000000D+01
 p    3  1.00
  0.7868272300D+01  0.6899906693D-01
  0.1881288500D+01  0.3164239597D+00
  0.5442492600D+00  0.7443082892D+00
 p    1  1.00
  0.1687144800D+00  0.1000000000D+01
 p    1  1.00
  0.4380000000D-01  0.1000000000D+01
 d    1  1.00
  0.8000000000D+00  0.1000000000D+01
  
 10 0
 s    6  1.00
  0.3047524900D+04  0.1834737091D-02
  0.4573695200D+03  0.1403732293D-01
  0.1039486800D+03  0.6884262165D-01
  0.2921015500D+02  0.2321844388D+00
  0.9286663000D+01  0.4679413476D+00
  0.3163927000D+01  0.3623119882D+00
 s    3  1.00
  0.7868272300D+01 -0.1193324245D+00
  0.1881288500D+01 -0.1608541561D+00
  0.5442492600D+00  0.1143456443D+01
 s    1  1.00
  0.1687144800D+00  0.1000000000D+01
 s    1  1.00
  0.4380000000D-01  0.1000000000D+01
 p    3  1.00
  0.7868272300D+01  0.6899906693D-01
  0.1881288500D+01  0.3164239597D+00
  0.5442492600D+00  0.7443082892D+00
 p    1  1.00
  0.1687144800D+00  0.1000000000D+01
 p    1  1.00
  0.4380000000D-01  0.1000000000D+01
 d    1  1.00
  0.8000000000D+00  0.1000000000D+01
  
 11 0
 s    3  1.00
  0.1873113700D+02  0.3349460400D-01
  0.2825394400D+01  0.2347269500D+00
  0.6401216900D+00  0.8137573301D+00
 s    1  1.00
  0.1612777600D+00  0.1000000000D+01
 s    1  1.00
  0.3600000000D-01  0.1000000000D+01
 p    1  1.00
  0.1100000000D+01  0.1000000000D+01
  
 12 0
 s    3  1.00
  0.1873113700D+02  0.3349460400D-01
  0.2825394400D+01  0.2347269500D+00
  0.6401216900D+00  0.8137573301D+00
 s    1  1.00
  0.1612777600D+00  0.1000000000D+01
 s    1  1.00
  0.3600000000D-01  0.1000000000D+01
 p    1  1.00
  0.1100000000D+01  0.1000000000D+01
 
 
[MO]
 Sym=      1.1
 Ene=     -11.2593
 Spin= Alpha
 Occup=    2.000000
1 0.001077797624922
2 -0.000083297144515
3 -0.000059541535086
4 -0.016701922733146
5 0.000033882810991
6 -0.000001666850925
7 0.000000000030387
8 -0.000362219145696
9 0.000240478236632
10 -0.000000000212762
11 0.004100984066455
12 0.005330621501108
13 0.000000003973738
14 0.000007108033527
15 0.000003515342493
16 -0.000010623376021
17 -0.000018246524903
18 -0.000000000086380
19 0.000000000102197
20 -0.000103724400227
21 -0.000166297565009
22 0.000792240448488
23 0.006165295241339
24 0.000027912567445
25 0.000002035233702
26 0.000000000111362
27 -0.000675090504419
28 -0.000004659896643
29 -0.000000000457346
30 -0.002999522016431
31 -0.002984069874850
32 -0.000000004493656
33 0.000042364850486
34 -0.000014823835697
35 -0.000027541014790
36 0.000000645957190
37 0.000000000051897
38 0.000000000047201
39 -0.000103724155739
40 -0.000166297606736
41 0.000792240765631
42 0.006165257466716
43 0.000027912424664
44 -0.000002037024893
45 0.000000000103497
46 -0.000675090228872
47 0.000004703177932
48 -0.000000000429416
49 -0.002999319233567
50 0.002984260155771
51 0.000000002226921
52 0.000042364789788
53 -0.000014823771295
54 -0.000027541018493
55 -0.000000650260115
56 0.000000000049791
57 -0.000000000010876
58 0.001077797802303
59 -0.000083297146034
60 -0.000059541437560
61 -0.016701886441354
62 0.000033882919056
63 0.000001664658185
64 0.000000000036593
65 -0.000362235435917
66 -0.000240454483943
67 -0.000000000718208
68 0.004100640430808
69 -0.005330880526992
70 -0.000000008119184
71 0.000007110137717
72 0.000003513257273
73 -0.000010623394990
74 0.000018246230648
75 -0.000000000050400
76 -0.000000000051383
77 -0.000068582353252
78 -0.000147555295303
79 -0.000689930630180
80 0.000044494593221
81 0.000034630363348
82 0.000000000073947
83 -0.000000718057324
84 0.000193173398028
85 0.000920763753889
86 0.000009300412133
87 -0.000009871107136
88 0.000000000038883
89 -0.000000718083981
90 0.000193173147284
91 0.000920761215594
92 0.000009301076297
93 0.000009870506294
94 0.000000000056990
95 -0.000068582372652
96 -0.000147555272599
97 -0.000689928326931
98 0.000044492384480
99 -0.000034633252371
100 -0.000000000011400
101 0.083087649313338
102 0.001774260178721
103 0.003080376930699
104 0.064232960332534
105 0.000390185324894
106 -0.000000012642253
107 -0.000000000175079
108 -0.002433659131485
109 0.000000079333513
110 0.000000001053677
111 -0.018852378561494
112 0.000000616344191
113 0.000000012391435
114 -0.000293040048401
115 0.000064470790066
116 0.000228569258335
117 0.000000013347209
118 0.000000000326025
119 -0.000000000209728
120 0.99269680630650
121 0.025355992009693
122 -0.016182936134132
123 -0.040008614694595
124 -0.000058262330701
125 0.000000001876011
126 -0.000000000367648
127 -0.001804177715372
128 0.000000058277502
129 0.000000001401597
130 -0.008239911149957
131 0.000000264294293
132 0.000000005098152
133 0.000396625628188
134 0.000366660640960
135 -0.000763286269148
136 -0.000000001218115
137 -0.000000000400465
138 0.000000001489793
139 -0.000310067520138
140 0.001788707765628
141 -0.001169284336899
142 -0.000205590412729
143 0.000511012745603
144 0.000000000544138
145 -0.000310067402933
146 0.001788707327128
147 -0.001169287147172
148 -0.000205623485165
149 -0.000510999417120
150 -0.000000000607343
 Sym=      2.1
 Ene=     -11.2504
 Spin= Alpha
 Occup=    2.000000
1 0.022531945970935
2 0.000524586814199
3 0.002053400643867
4 -0.074544468923240
5 0.000032106927161
6 0.000078242806259
7 0.000000000068529
8 -0.001038487381776
9 -0.000496729918916
10 -0.000000000181089
11 -0.004711421629507
12 0.018313727344943
13 0.000000019424483
14 0.000047826835608
15 -0.000316984068123
16 0.000269157232515
17 -0.000380230792725
18 -0.000000000537635
19 -0.000000001060427
20 0.000991419698736
21 -0.000098709389888
22 0.000507477631882
23 0.022070519341860
24 0.000028293364246
25 -0.000079434159972
26 -0.000000000150471
27 -0.000109614151563
28 0.000243839467534
29 0.000000000282258
30 -0.002868829241991
31 0.001846039458337
32 0.000000001745246
33 0.000076226758782
34 0.000006385238903
35 -0.000082611997686
36 0.000141404150526
37 0.000000000227086
38 0.000000000138162
39 0.000991419630314
40 -0.000098709368610
41 0.000507477161689
42 0.022070474668774
43 0.000028298505237
44 0.000079432326709
45 0.000000000028170
46 -0.000109629594749
47 -0.000243832718963
48 -0.000000000216092
49 -0.002868941021184
50 -0.001845861447042
51 -0.000000001532873
52 0.000076210858794
53 0.000006401137661
54 -0.000082611996455
55 -0.000141409386461
56 -0.000000000104501
57 0.000000000104128
58 0.022531944463799
59 0.000524586791252
60 0.002053401461176
61 -0.074544404837007
62 0.000032101810321
63 -0.000078244874829
64 -0.000000000105774
65 -0.001038455241957
66 0.000496798058868
67 0.000000000945210
68 -0.004712615004050
69 -0.018313408466369
70 -0.000000022289149
71 0.000047869604358
72 -0.000317026814129
73 0.000269157209771
74 0.000380203376701
75 0.000000000311068
76 -0.000000000448825
77 -0.000076201402800
78 -0.000504762291965
79 -0.004137107568962
80 0.000075166290334
81 0.000037469203762
82 0.000000000026532
83 -0.000057164890634
84 -0.000126087655239
85 -0.000944945792030
86 0.000046683255862
87 0.000032282701831
88 0.000000000037294
89 -0.000057164912085
90 -0.000126087868685
91 -0.000944948066309
92 0.000046681168441
93 -0.000032285728893
94 -0.000000000034958
95 -0.000076201374004
96 -0.000504762060472
97 -0.004137105388080
98 0.000075163875344
99 -0.000037474080755
100 -0.000000000048424
101 0.99221883180011
102 0.025940934265036
103 -0.017926408184101
104 0.079290406457366
105 0.000040199420877
106 -0.000000001383452
107 0.000000000754289
108 0.000143059456727
109 -0.000000003998199
110 -0.000000002389639
111 0.049396441266035
112 -0.000001588188024
113 0.000000011435158
114 0.000740324311802
115 -0.000091689364087
116 -0.000648634947716
117 -0.000000031065129
118 -0.000000000364355
119 0.000000000736679
120 -0.083473650124269
121 -0.002638036962495
122 0.004717518462506
123 0.037798753083693
124 -0.000406161919802
125 0.000000013195848
126 0.000000000477383
127 0.001843220165357
128 -0.000000060117500
129 -0.000000000994857
130 0.005276356556687
131 -0.000000174376450
132 -0.000000011279353
133 -0.000493541169066
134 0.000101082599544
135 0.000392458569521
136 0.000000022294269
137 0.000000000612070
138 -0.000000000378712
139 -0.000065883790305
140 0.000059991532555
141 0.000459059964790
142 0.000048074983092
143 -0.000098197448686
144 -0.000000000103873
145 -0.000065883820081
146 0.000059990971761
147 0.000459056466016
148 0.000048081359604
149 0.000098194293346
150 0.000000000126531
 Sym=      3.1
 Ene=     -11.2393
 Spin= Alpha
 Occup=    2.000000
1 0.079709934908857
2 0.001707629923158
3 0.001057605053995
4 -0.045570587638552
5 -0.000189499676528
6 0.000065745324408
7 -0.000000000065761
8 0.000778276862711
9 0.000013618858156
10 0.000000000811808
11 -0.005275210003223
12 0.011782964872425
13 0.000000012812516
14 -0.000202444473740
15 0.000103903545851
16 0.000098540927889
17 0.000112154285928
18 0.000000000007062
19 -0.000000000017151
20 0.69981825119979
21 0.017984508857799
22 -0.009043971939773
23 0.020877946318203
24 -0.000014022563348
25 -0.000052788816874
26 -0.000000000129736
27 0.000979940764383
28 -0.000053588216401
29 0.000000000390804
30 -0.004907729114243
31 -0.000187967107585
32 -0.000000000859537
33 0.000520549892640
34 -0.000265646015221
35 -0.000254903877419
36 0.000153541839554
37 0.000000000449063
38 0.000000000009331
39 0.69981441030121
40 0.017984408591096
41 -0.009043888513477
42 0.020877402427140
43 -0.000014019087921
44 0.000052788726302
45 0.000000000099013
46 0.000979935717489
47 0.000053537610446
48 0.000000000310073
49 -0.004907613805039
50 0.000188187328990
51 0.000000000504633
52 0.000520531489651
53 -0.000265630984858
54 -0.000254900504793
55 -0.000153599582671
56 0.000000000107616
57 -0.000000000079776
58 0.079709478121849
59 0.001707619819356
60 0.001057590195374
61 -0.045570196958366
62 -0.000189503328386
63 -0.000065732508224
64 -0.000000000201955
65 0.000778269985621
66 -0.000013676016421
67 0.000000000839747
68 -0.005275965007925
69 -0.011782549737309
70 -0.000000014248373
71 -0.000202456387667
72 0.000103916539861
73 0.000098539847806
74 -0.000112130328645
75 -0.000000000188270
76 0.000000000088207
77 -0.000092547336077
78 -0.000143732092871
79 -0.003852406624519
80 -0.000032870070259
81 0.000028721065511
82 -0.000000000025407
83 -0.000430951985431
84 0.000932564105565
85 0.000056174463427
86 0.000324295581201
87 0.000302450288620
88 0.000000000410256
89 -0.000430950290424
90 0.000932558470063
91 0.000056144965460
92 0.000324273857262
93 -0.000302470193520
94 -0.000000000244878
95 -0.000092547214439
96 -0.000143734267807
97 -0.003852395381181
98 -0.000032871834430
99 -0.000028719084506
100 -0.000000000089166
101 -0.005056204761536
102 -0.000145832390317
103 -0.001096670566906
104 -0.000737548195243
105 -0.000023087452458
106 0.000000000611692
107 0.000000000045116
108 0.001885691688382
109 -0.000000063176588
110 -0.000000000668598
111 0.039843605991171
112 -0.000001241476433
113 -0.000000001924490
114 0.000132840731216
115 -0.000105904988749
116 -0.000026935742467
117 -0.000000009083030
118 0.000000000123663
119 -0.000000000088574
120 0.000331989228565
121 -0.000286920701844
122 0.002436688793052
123 0.059778172985897
124 -0.000031792489174
125 0.000000000926036
126 0.000000000151145
127 0.001249226848890
128 -0.000000038895579
129 -0.000000001165391
130 0.012090142717490
131 -0.000000401007575
132 -0.000000010511569
133 0.000024923774248
134 0.000030340536733
135 -0.000055264310981
136 0.000000000263826
137 -0.000000000066868
138 0.000000000111281
139 -0.000042396443481
140 -0.000051698134265
141 0.000410930998924
142 -0.000030801063836
143 -0.000002539606334
144 0.000000000065246
145 -0.000042396166921
146 -0.000051696721652
147 0.000410924676413
148 -0.000030800845781
149 0.000002541574267
150 0.000000000072360
 Sym=      4.1
 Ene=     -11.2386
 Spin= Alpha
 Occup=    2.000000
1 0.092821844645796
2 0.002074651515115
3 0.002865646678531
4 -0.047938854304077
5 -0.000109594874051
6 0.000095184620303
7 0.000000000112498
8 0.001035368499164
9 -0.001426617750952
10 -0.000000001527271
11 -0.002080133902270
12 0.008369913689037
13 0.000000010109257
14 -0.000119508430579
15 -0.000066369671672
16 0.000185878102251
17 0.000180695873757
18 0.000000000108090
19 -0.000000000287474
20 0.69830273596200
21 0.018235980438104
22 -0.015320108075055
23 0.078843366700005
24 -0.000010127944825
25 -0.000197166023686
26 -0.000000000220436
27 0.001802507990475
28 0.002627109418092
29 0.000000003681009
30 -0.014526154342400
31 -0.014494715371391
32 -0.000000022244816
33 0.000208449928445
34 0.000398317271974
35 -0.000606767200419
36 0.000219673115069
37 0.000000000530925
38 0.000000001431561
39 -0.69830657258375
40 -0.018236079086544
41 0.015320157176171
42 -0.078843477695091
43 0.000010115206450
44 -0.000197167019047
45 -0.000000000320563
46 -0.001802342435097
47 0.002627226282876
48 0.000000002627406
49 0.014525237828781
50 -0.014495659064654
51 -0.000000012370774
52 -0.000208428094108
53 -0.000398340487960
54 0.000606768582068
55 0.000219659699449
56 -0.000000000040339
57 -0.000000001268785
58 -0.092822330657414
59 -0.002074662234471
60 -0.002865650772730
61 0.047939102097608
62 0.000109602067333
63 0.000095177855114
64 0.000000000099358
65 -0.001035465085964
66 -0.001426549843630
67 -0.000000001719125
68 0.002080707034526
69 0.008369843119131
70 0.000000008695582
71 0.000119529866181
72 0.000066348755345
73 -0.000185878621527
74 0.000180692488626
75 0.000000000273612
76 0.000000000373348
77 -0.000026189139276
78 0.000499786950850
79 -0.000945344886138
80 -0.000014122970206
81 -0.000024132691155
82 -0.000000000023296