
 Primary working directories    : /scratch/bweight
 Secondary working directories  : /scratch/bweight
 Wavefunction directory         : /home/bweight/wfu/
 Main file repository           : /scratch/bweight/

 SHA1      : 960ce83de8be0427555cf121dea4debc26c720b5
 NAME      : 2012.1.960ce83
 ARCHNAME  : Linux/x86_64
 FC        : /opt/intel/composer_xe_2013_sp1.2.144/bin/intel64/ifort
 FCVERSION : 14.0.2
 BLASLIB   : -Wl,-_start-group /opt/intel/mkl/lib/intel64/libmkl_intel_ilp64.a /opt/intel/mkl/lib/intel64/libmkl_sequential.a /opt/intel/mkl/lib/intel64/libmkl_core.a -Wl,-_end-group
 id        : huogroup

 Nodes     nprocs
 bhd0011      1

 Using customized tuning parameters: mindgm=7; mindgv=24; mindgc=1; mindgr=1; noblas=0; minvec=7
 default implementation of scratch files=df  

 ***,Fulvene freqency calculation
 memory,1000,m
 
 file,2,Fulvene.wf,new;
 
 basis=6-31++G**
 gthresh,energy=1.d-8
 
 geomtyp=xyz
 symmetry,nosym
 geometry={
 12
 Fulvene CARTESIAN COORDINATES
 C,0.13437,1.19472,-0.00000
 C,1.41722,0.74879,0.00000
 C,1.41713,-0.74891,0.00000
 C,0.13423,-1.19470,-0.00000
 H,-0.21822,2.23122,-0.00000
 H,2.32763,1.36037,0.00000
 H,2.32748,-1.36057,0.00000
 H,-0.21853,-2.23114,-0.00001
 C,-0.77571,0.00007,0.00000
 C,-2.12821,0.00006,0.00000
 H,-2.70629,0.93407,0.00000
 H,-2.70628,-0.93415,0.00000
 }
 
 hf;accu,14
 optg;coord,3n;
 
 {frequencies,analytic
 thermo,sym=auto
 print,thermo}
 
 mp2                                                                             ! {dfunc,pbe}
 optg;coord,3n
 {frequencies
 thermo,
 print,thermo}
 put,molden,Fulvene.molden;

 Variables initialized (778), CPU time= 0.00 sec
 Commands  initialized (547), CPU time= 0.01 sec, 516 directives.
 Default parameters read. Elapsed time= 0.38 sec

 Checking input...
 Passed
1


                                         ***  PROGRAM SYSTEM MOLPRO  ***
                         Copyright, University College Cardiff Consultants Limited, 2008

                                    Version 2012.1 linked Apr  1 2014 15:33:03


 **********************************************************************************************************************************
 LABEL *   Fulvene freqency calculation                                                  
 Linux-3.10.0-957.el7.x86_64/bhd0011(x86_64) 64 bit serial version                       DATE: 24-Sep-20          TIME: 18:39:59  
 **********************************************************************************************************************************

 SHA1:             960ce83de8be0427555cf121dea4debc26c720b5
 **********************************************************************************************************************************

 Variable memory set to 1000000000 words,  buffer space   230000 words



 Permanent file  2  fulvene.wf       assigned.  Implementation=df  
 


 **********************************************************************************************************************************
 DATASETS  * FILE   NREC   LENGTH (MB)   RECORD NAMES
              2       1        0.03       500   
                                          VAR  

 PROGRAMS   *        TOTAL      FILE
 CPU TIMES  *         0.07      0.00
 REAL TIME  *         0.60 SEC
 DISK USED  *         0.03 MB      
 **********************************************************************************************************************************
 SETTING BASIS          =    6-31++G**

 THRESHOLDS:

 ZERO    =  1.00D-12  ONEINT  =  1.00D-12  TWOINT  =  1.00D-11  PREFAC  =  1.00D-14  LOCALI  =  1.00D-09  EORDER  =  1.00D-04
 ENERGY  =  1.00D-08  ETEST   =  0.00D+00  EDENS   =  0.00D+00  THRDEDEF=  1.00D-06  GRADIENT=  1.00D-02  STEP    =  1.00D-03
 ORBITAL =  1.00D-05  CIVEC   =  1.00D-05  COEFF   =  1.00D-04  PRINTCI =  5.00D-02  PUNCHCI =  9.90D+01  OPTGRAD =  3.00D-04
 OPTENERG=  1.00D-06  OPTSTEP =  3.00D-04  THRGRAD =  1.00D-10  COMPRESS=  1.00D-11  VARMIN  =  1.00D-07  VARMAX  =  1.00D-03
 THRDOUB =  0.00D+00  THRDIV  =  1.00D-05  THRRED  =  1.00D-07  THRPSP  =  1.00D+00  THRDC   =  1.00D-10  THRCS   =  1.00D-10
 THRNRM  =  1.00D-08  THREQ   =  0.00D+00  THRDE   =  1.00D+00  THRREF  =  1.00D-05  SPARFAC =  1.00D+00  THRDLP  =  1.00D-07
 THRDIA  =  1.00D-10  THRDLS  =  1.00D-07  THRGPS  =  0.00D+00  THRKEX  =  0.00D+00  THRDIS  =  2.00D-01  THRVAR  =  1.00D-10
 THRLOC  =  1.00D-06  THRGAP  =  1.00D-06  THRLOCT = -1.00D+00  THRGAPT = -1.00D+00  THRORB  =  1.00D-06  THRMLTP =  0.00D+00
 THRCPQCI=  1.00D-10  KEXTA   =  0.00D+00  THRCOARS=  0.00D+00  SYMTOL  =  1.00D-06  GRADTOL =  1.00D-06  THROVL  =  1.00D-08
 THRORTH =  1.00D-08  GRID    =  1.00D-06  GRIDMAX =  1.00D-03  DTMAX   =  0.00D+00  THROCCDE=  1.00D-01  THROCCDE=  1.00D-01


 SETTING GEOMTYP        =    XYZ
 ZSYMEL=NOSYM
 


 Recomputing integrals since basis changed


 Using spherical harmonics

 Library entry C      S 6-31G                selected for orbital group  1
 Library entry C      S 6-31++G              selected for orbital group  1
 Library entry C      P 6-31G                selected for orbital group  1
 Library entry C      P 6-31++G              selected for orbital group  1
 Library entry C      D 6-31G*               selected for orbital group  1
 Library entry H      S 6-31G                selected for orbital group  2
 Library entry H      S 6-31++G              selected for orbital group  2
 Library entry H      P 6-31G**              selected for orbital group  2

1PROGRAM * SEWARD (Integral evaluation for generally contracted gaussian basis sets)     Author: Roland Lindh, 1990

 Geometry written to block  1 of record 700


 Point group  C1  



 ATOMIC COORDINATES

 NR  ATOM    CHARGE       X              Y              Z

   1  C       6.00    0.253922500    2.257693604    0.000000000
   2  C       6.00    2.678157668    1.415008030    0.000000000
   3  C       6.00    2.677987593   -1.415234797    0.000000000
   4  C       6.00    0.253657939   -2.257655809    0.000000000
   5  H       1.00   -0.412376036    4.216394739    0.000000000
   6  H       1.00    4.398583235    2.570726737    0.000000000
   7  H       1.00    4.398299776   -2.571104683    0.000000000
   8  H       1.00   -0.412961851   -4.216243561   -0.000018897
   9  C       6.00   -1.465879457    0.000132281    0.000000000
  10  C       6.00   -4.021734050    0.000113384    0.000000000
  11  H       1.00   -5.114146932    1.765136488    0.000000000
  12  H       1.00   -5.114128035   -1.765287666    0.000000000

 Bond lengths in Bohr (Angstrom)

 1-2  2.566521990  1-5  2.068928195  1-9  2.838010201  2-3  2.830242832  2-6  2.072570834
     ( 1.358144943)     ( 1.094829648)     ( 1.501810317)     ( 1.497700003)     ( 1.096757250)

  3- 4  2.566524388   3- 7  2.072561025   4- 8  2.068924340   4- 9  2.838030288   9-10  2.555854593
       ( 1.358146212)       ( 1.096752059)       ( 1.094827608)       ( 1.501820947)       ( 1.352500000)

 10-11  2.075734198  10-12  2.076045636
       ( 1.098431230)       ( 1.098596035)

 Bond angles

  1- 2- 3  109.16446029   1- 2- 6  126.94034092   1- 9- 4  105.40698767   1- 9-10  127.30044130

  2-1-5  127.95485509   2-1-9  108.13211435   2-3-4  109.16507506   2-3-7  123.89352982

  3-2-6  123.89519879   3-4-8  127.95801768   3-4-9  108.13136264   4-3-7  126.94139513

  4- 9-10  127.29257104   5- 1- 9  123.91303056   8- 4- 9  123.91061968   9-10-11  121.75388216

  9-10-12  121.74879649  11-10-12  116.49732134

 NUCLEAR CHARGE:                   42
 NUMBER OF PRIMITIVE AOS:         240
 NUMBER OF SYMMETRY AOS:          234
 NUMBER OF CONTRACTIONS:          144   ( 144A   )
 NUMBER OF CORE ORBITALS:           6   (   6A   )
 NUMBER OF VALENCE ORBITALS:       30   (  30A   )


 NUCLEAR REPULSION ENERGY  198.27839788


 Eigenvalues of metric

         1 0.415E-05 0.111E-04 0.171E-04 0.473E-04 0.154E-03 0.260E-03 0.102E-02 0.107E-02


 Contracted 2-electron integrals neglected if value below      1.0D-12
 AO integral compression algorithm  1   Integral accuracy      1.0D-12

     154.141 MB (compressed) written to integral file ( 32.5%)


 NUMBER OF SORTED TWO-ELECTRON INTEGRALS:   54502020.     BUFFER LENGTH:  32768
 NUMBER OF SEGMENTS:   4  SEGMENT LENGTH:   15999503      RECORD LENGTH: 524288

 Memory used in sort:      16.56 MW

 SORT1 READ    59246025. AND WROTE    29035463. INTEGRALS IN     85 RECORDS. CPU TIME:     0.60 SEC, REAL TIME:     1.23 SEC
 SORT2 READ    29035463. AND WROTE    54502020. INTEGRALS IN    588 RECORDS. CPU TIME:     0.72 SEC, REAL TIME:     1.04 SEC

 FILE SIZES:   FILE 1:   162.6 MBYTE,  FILE 4:   356.5 MBYTE,   TOTAL:    519.2 MBYTE

 OPERATOR DM      FOR CENTER  0  COORDINATES:    0.000000    0.000000    0.000000


 **********************************************************************************************************************************
 DATASETS  * FILE   NREC   LENGTH (MB)   RECORD NAMES
              1      19      142.32       500      610      700      900      950      970     1000      129      960     1100   
                                          VAR    BASINP    GEOM    SYMINP    ZMAT    AOBASIS   BASIS     P2S    ABASIS      S 
                                         1400     1410     1200     1210     1080     1600     1650     1300     1700   
                                           T        V       H0       H01     AOSYM     SMH    MOLCAS    ERIS     OPER   

              2       5        1.39       500      610      700     1000      520   
                                          VAR    BASINP    GEOM     BASIS   MCVARS    

 PROGRAMS   *        TOTAL       INT      FILE
 CPU TIMES  *         5.37      5.30      0.00
 REAL TIME  *         8.71 SEC
 DISK USED  *       520.65 MB      
 **********************************************************************************************************************************

1PROGRAM * RHF-SCF (CLOSED SHELL)       Authors: W. Meyer, H.-J. Werner


 NUMBER OF ELECTRONS:      21+   21-    SPACE SYMMETRY=1    SPIN SYMMETRY: Singlet 
 CONVERGENCE THRESHOLDS:    1.00E-07 (Density)    1.00E-09 (Energy)
 MAX. NUMBER OF ITERATIONS:       60
 INTERPOLATION TYPE:            DIIS
 INTERPOLATION STEPS:              2 (START)      1 (STEP)
 LEVEL SHIFTS:                  0.00 (CLOSED)  0.00 (OPEN) 



 Orbital guess generated from atomic densities. Full valence occupancy:   21

 Molecular orbital dump at record        2100.2

 ITERATION    DDIFF          GRAD             ENERGY        2-EL.EN.            DIPOLE MOMENTS         DIIS   ORB.
    1      0.000D+00      0.000D+00      -230.59826502    550.785327   -0.66234   -0.00004   -0.00000    0    start
    2      0.000D+00      0.370D-02      -230.65041434    546.288798   -0.12797    0.00002   -0.00000    1    diag
    3      0.295D-01      0.153D-02      -230.65714437    548.409343   -0.33413    0.00002   -0.00000    2    diag
    4      0.121D-01      0.606D-03      -230.65857920    547.874258   -0.19940    0.00003   -0.00000    3    diag
    5      0.316D-02      0.138D-03      -230.65865344    547.835634   -0.21336    0.00003   -0.00000    4    diag
    6      0.491D-03      0.327D-04      -230.65866563    547.841368   -0.20042    0.00003   -0.00000    5    diag
    7      0.387D-03      0.158D-04      -230.65866763    547.840453   -0.19895    0.00003   -0.00000    6    diag
    8      0.162D-03      0.705D-05      -230.65866797    547.840730   -0.19619    0.00003   -0.00000    7    diag
    9      0.654D-04      0.231D-05      -230.65866801    547.840551   -0.19562    0.00003   -0.00000    8    diag
   10      0.252D-04      0.480D-06      -230.65866801    547.840683   -0.19545    0.00003   -0.00000    9    orth
   11      0.254D-05      0.174D-06      -230.65866801    547.840597   -0.19542    0.00003   -0.00000    9    diag
   12      0.925D-06      0.633D-07      -230.65866801    547.840603   -0.19540    0.00003   -0.00000    9    diag
   13      0.321D-06      0.162D-07      -230.65866801    547.840606   -0.19539    0.00003   -0.00000    9    diag
   14      0.221D-06      0.304D-08      -230.65866801    547.840603   -0.19539    0.00003   -0.00000    9    diag
   15      0.254D-07      0.134D-08      -230.65866801    547.840605   -0.19539    0.00003   -0.00000    0    orth

 Final occupancy:  21

 !RHF STATE 1.1 Energy               -230.658668013261
 Nuclear energy                       198.27839788
 One-electron energy                 -702.85736815
 Two-electron energy                  273.92030226
 Virial quotient                       -1.00270319
 !RHF STATE 1.1 Dipole moment          -0.19539415     0.00002665    -0.00000358
 Dipole moment /Debye                  -0.49660987     0.00006773    -0.00000911

 Orbital energies:

         1.1          2.1          3.1          4.1          5.1          6.1          7.1          8.1          9.1         10.1
    -11.259937   -11.257023   -11.244705   -11.244036   -11.239303   -11.239282    -1.153827    -1.022684    -0.969037    -0.856091

        11.1         12.1         13.1         14.1         15.1         16.1         17.1         18.1         19.1         20.1
     -0.739185    -0.723489    -0.682746    -0.603375    -0.565908    -0.556761    -0.516301    -0.494892    -0.485544    -0.343275

        21.1         22.1         23.1
     -0.310978     0.041925     0.051685

 HOMO     21.1    -0.310978 =      -8.4622eV
 LUMO     22.1     0.041925 =       1.1408eV
 LUMO-HOMO         0.352903 =       9.6030eV


 **********************************************************************************************************************************
 DATASETS  * FILE   NREC   LENGTH (MB)   RECORD NAMES
              1      19      142.32       500      610      700      900      950      970     1000      129      960     1100   
                                          VAR    BASINP    GEOM    SYMINP    ZMAT    AOBASIS   BASIS     P2S    ABASIS      S 
                                         1400     1410     1200     1210     1080     1600     1650     1300     1700   
                                           T        V       H0       H01     AOSYM     SMH    MOLCAS    ERIS     OPER   

              2       6        1.88       500      610      700     1000      520     2100   
                                          VAR    BASINP    GEOM     BASIS   MCVARS     RHF  

 PROGRAMS   *        TOTAL        HF       INT      FILE
 CPU TIMES  *        11.91      6.54      5.30      0.00
 REAL TIME  *        15.95 SEC
 DISK USED  *       520.65 MB      
 **********************************************************************************************************************************


 PROGRAM * OPT (Geometry optimization)     Authors: F. Eckert and H.-J. Werner


 BFGS update of hessian

 *** Long output written to logfile /gpfs/fs2/scratch/bweight/qd-pldm/runs/Fulvene/InitConditions/Fulvene.log ***


 Geometry optimization using default procedure for command HF-SCF

 Geometry written to block  1 of record 700

 Making model hessian for cartesian coordinates

 Quadratic Steepest Descent - Minimum Search

 ITER.   ENERGY(OLD)    ENERGY(NEW)      DE          GRADMAX     GRADNORM    GRADRMS     STEPMAX     STEPLEN     STEPRMS   CPU-time
   1  -230.65866801  -230.66375250    -0.00508449  0.04220783  0.04943627  0.00164788  0.16418018  0.21247058  0.06133497     27.03
   2  -230.66375250  -230.66394503    -0.00019253  0.00847905  0.00980491  0.00032683  0.04109019  0.04700021  0.01356779     54.65
   3  -230.66394503  -230.66395321    -0.00000818  0.00321719  0.00395349  0.00013178  0.00589035  0.00890889  0.00257178     81.82
   4  -230.66395321  -230.66395410    -0.00000089  0.00088069  0.00124305  0.00004143  0.00142734  0.00204874  0.00059142    108.54
   5  -230.66395410  -230.66395416    -0.00000007  0.00019830  0.00030543  0.00001018  0.00033788  0.00060433  0.00017446    134.69

 END OF GEOMETRY OPTIMIZATION.

 Current geometry (xyz format, in Angstrom)

   12
 HF-SCF000/6-31++G**  ENERGY=-230.66395416
 C          0.1285365403        1.1758190315        0.0000006478
 C          1.3912407106        0.7390538129        0.0000001236
 C          1.3911926339       -0.7391778526       -0.0000016832
 C          0.1284600986       -1.1758609975       -0.0000007244
 H         -0.2087978196        2.1942703108        0.0000022159
 H          2.2767898740        1.3459839477        0.0000007386
 H          2.2767024385       -1.3461653877       -0.0000036374
 H         -0.2089407819       -2.1942902426       -0.0000027579
 C         -0.7652170606        0.0000081959       -0.0000008630
 C         -2.0940375091        0.0000510117       -0.0000012453
 H         -2.6555250393        0.9177524962       -0.0000003760
 H         -2.6555840854       -0.9176143264       -0.0000024386

 **********************************************************************************************************************************

 Geometry written to block  1 of record 700


 **********************************************************************************************************************************
 DATASETS  * FILE   NREC   LENGTH (MB)   RECORD NAMES
              1      19      174.39       500      610      700      900      950      970     1000      129      960     1100   
                                          VAR    BASINP    GEOM    SYMINP    ZMAT    AOBASIS   BASIS     P2S    ABASIS      S 
                                         1400     1410     1200     1210     1080     1600     1650     1300     1700   
                                           T        V       H0       H01     AOSYM     SMH    MOLCAS    ERIS     OPER   

              2       6        1.88       500      610      700     1000      520     2100   
                                          VAR    BASINP    GEOM     BASIS   MCVARS     RHF  

 PROGRAMS   *        TOTAL      OPTG        HF       INT      FILE
 CPU TIMES  *       146.60    134.69      6.54      5.30      0.00
 REAL TIME  *       166.52 SEC
 DISK USED  *       757.06 MB      
 **********************************************************************************************************************************


 PROGRAM * HESSIAN

 PROGRAM * MCKINLEY (Hessian of the energy)     Author: A. Bernhardsson, R. Lindh

 Orbitals from record         2100.2

 Number of closed-shell orbitals: 21 ( 21 )
 Number of occupied orbitals:     21 ( 21 )

 Number of electrons= 42     Singlet     Space symmetry=1      Wavefunction type: CLOSED          


 McKinley needed    295.23 seconds of CPU time

 Entering CPHF calculation

 CPHF needed 348 iterations for 36 perturbations.  Total CPU time:  200.40 sec


 HF-SCF hessian saved to record  5300.2

 FREQUENCIES * CALCULATION OF HARMONIC VIBRATIONAL SPECTRA FOR HF-SCF


 Permanent Dipole Moment [debye]
   1-  3    0.000000    0.000000    0.000000

 Dipole Moment Norm    0.0000000 [debye]

 Dipole Moment Derivatives [debye/ang]
                   1             2             3             4             5             6             7             8
         1     0.0000000     0.0000000     0.0000000     0.0000000     0.0000000     0.0000000     0.0000000     0.0000000
         2     0.0000000     0.0000000     0.0000000     0.0000000     0.0000000     0.0000000     0.0000000     0.0000000
         3     0.0000000     0.0000000     0.0000000     0.0000000     0.0000000     0.0000000     0.0000000     0.0000000
                   9            10            11            12            13            14            15            16
         1     0.0000000     0.0000000     0.0000000     0.0000000     0.0000000     0.0000000     0.0000000     0.0000000
         2     0.0000000     0.0000000     0.0000000     0.0000000     0.0000000     0.0000000     0.0000000     0.0000000
         3     0.0000000     0.0000000     0.0000000     0.0000000     0.0000000     0.0000000     0.0000000     0.0000000
                  17            18            19            20            21            22            23            24
         1     0.0000000     0.0000000     0.0000000     0.0000000     0.0000000     0.0000000     0.0000000     0.0000000
         2     0.0000000     0.0000000     0.0000000     0.0000000     0.0000000     0.0000000     0.0000000     0.0000000
         3     0.0000000     0.0000000     0.0000000     0.0000000     0.0000000     0.0000000     0.0000000     0.0000000
                  25            26            27            28            29            30            31            32
         1     0.0000000     0.0000000     0.0000000     0.0000000     0.0000000     0.0000000     0.0000000     0.0000000
         2     0.0000000     0.0000000     0.0000000     0.0000000     0.0000000     0.0000000     0.0000000     0.0000000
         3     0.0000000     0.0000000     0.0000000     0.0000000     0.0000000     0.0000000     0.0000000     0.0000000
                  33            34            35            36
         1     0.0000000     0.0000000     0.0000000     0.0000000
         2     0.0000000     0.0000000     0.0000000     0.0000000
         3     0.0000000     0.0000000     0.0000000     0.0000000

 Projecting out rotations and translations

   Low Vibration      Wavenumber
        Nr             [1/cm] 
        1                0.00
        2                0.00
        3                0.00
        4                0.00
        5                0.00
        6                0.00

     Vibration        Wavenumber
        Nr             [1/cm] 
        1              219.52
        2              368.61
        3              537.27
        4              667.37
        5              719.82
        6              766.33
        7              861.42
        8              866.26
        9              866.48
       10              964.38
       11             1038.16
       12             1052.36
       13             1054.96
       14             1056.53
       15             1092.28
       16             1198.43
       17             1201.78
       18             1367.45
       19             1468.50
       20             1490.94
       21             1578.69
       22             1686.10
       23             1775.15
       24             1857.74
       25             3316.90
       26             3376.70
       27             3386.39
       28             3403.00
       29             3404.28
       30             3410.65

 FREQUENCIES * CALCULATION OF NORMAL MODES FOR HF-SCF


 Atomic Coordinates

  Nr  Atom  Charge       X              Y              Z

   1   C     6.00    0.242898859    2.221975950    0.000001224
   2   C     6.00    2.629063926    1.396609303    0.000000234
   3   C     6.00    2.628973074   -1.396843704   -0.000003181
   4   C     6.00    0.242754405   -2.222055254   -0.000001369
   5   H     1.00   -0.394570696    4.146569946    0.000004187
   6   H     1.00    4.302509321    2.543541038    0.000001396
   7   H     1.00    4.302344091   -2.543883910   -0.000006874
   8   H     1.00   -0.394840855   -4.146607611   -0.000005212
   9   C     6.00   -1.446050676    0.000015488   -0.000001631
  10   C     6.00   -3.957157401    0.000096398   -0.000002353
  11   H     1.00   -5.018215059    1.734300874   -0.000000711
  12   H     1.00   -5.018326640   -1.734039771   -0.000004608

 Frequencies dumped to record   5400.2

 Gradient norm at reference geometry: 0.30543D-03
 
 Molecule is not in standard orientation!
 Symmetry information for normal modes not available!

 Normal Modes

                              1 A         2 A         3 A         4 A         5 A  
 Wavenumbers [cm-1]          219.52      368.61      537.27      667.37      719.82
 Intensities [km/mol]          0.00        0.00        0.00        0.00        0.00
 Intensities [relative]        0.00        0.00        0.00        0.00        0.00
           GX1             -0.00000    -0.06382    -0.00000    -0.00000    -0.05993
           GY1             -0.00000    -0.06888     0.00000     0.00000     0.04721
           GZ1              0.10193    -0.00000    -0.08928    -0.07760     0.00000
           GX2             -0.00000    -0.03883    -0.00000    -0.00000    -0.08524
           GY2              0.00000     0.02795    -0.00000    -0.00000     0.01332
           GZ2             -0.07724    -0.00000     0.11936     0.04888    -0.00000
           GX3             -0.00000     0.03884    -0.00000    -0.00000    -0.08524
           GY3              0.00000     0.02795     0.00000     0.00000    -0.01331
           GZ3             -0.07724     0.00000    -0.11936     0.04888    -0.00000
           GX4              0.00000     0.06382     0.00000    -0.00000    -0.05994
           GY4             -0.00000    -0.06889    -0.00000    -0.00000    -0.04721
           GZ4              0.10193    -0.00000     0.08928    -0.07760    -0.00000
           GX5              0.00000    -0.15260    -0.00000    -0.00000    -0.16793
           GY5             -0.00000    -0.09798    -0.00000     0.00000     0.00994
           GZ5              0.14380    -0.00000    -0.01312    -0.40686    -0.00000
           GX6             -0.00000    -0.07766     0.00000    -0.00000    -0.05150
           GY6              0.00000     0.08328    -0.00000     0.00000    -0.03716
           GZ6             -0.20115    -0.00000     0.37490    -0.15864    -0.00000
           GX7             -0.00000     0.07767    -0.00000    -0.00000    -0.05150
           GY7              0.00000     0.08327     0.00000     0.00000     0.03717
           GZ7             -0.20115     0.00000    -0.37490    -0.15864     0.00000
           GX8             -0.00000     0.15259     0.00000    -0.00000    -0.16793
           GY8             -0.00000    -0.09799     0.00000     0.00000    -0.00993
           GZ8              0.14380    -0.00000     0.01311    -0.40686     0.00000
           GX9              0.00000    -0.00000     0.00000     0.00000     0.11914
           GY9             -0.00000    -0.10139    -0.00000    -0.00000    -0.00000
           GZ9              0.12417    -0.00000    -0.00000     0.18018    -0.00000
           GX10             0.00000     0.00000     0.00000     0.00000     0.17570
           GY10             0.00000     0.13716     0.00000    -0.00000    -0.00001
           GZ10            -0.12399     0.00000     0.00000    -0.01016     0.00000
           GX11             0.00000     0.24663     0.00000     0.00000     0.19264
           GY11             0.00000     0.28929     0.00000     0.00000     0.00612
           GZ11            -0.23783     0.00000    -0.30099    -0.10523     0.00000
           GX12             0.00000    -0.24661    -0.00000     0.00000     0.19264
           GY12             0.00000     0.28930    -0.00000     0.00000    -0.00614
           GZ12            -0.23783    -0.00000     0.30099    -0.10523     0.00000

                              6 A         7 A         8 A         9 A        10 A  
 Wavenumbers [cm-1]          766.33      861.42      866.26      866.48      964.38
 Intensities [km/mol]          0.00        0.00        0.00        0.00        0.00
 Intensities [relative]        0.00        0.00        0.00        0.00        0.00
           GX1             -0.00000     0.08193     0.00000    -0.00000     0.03755
           GY1              0.00000    -0.03613    -0.00000     0.00000     0.16515
           GZ1             -0.01380     0.00000    -0.08708    -0.08541     0.00000
           GX2             -0.00000     0.12396     0.00000    -0.00000    -0.02639
           GY2             -0.00000     0.09941     0.00000    -0.00000    -0.00655
           GZ2              0.08735     0.00000    -0.02941    -0.04091    -0.00000
           GX3              0.00000    -0.12396    -0.00000     0.00000    -0.02639
           GY3             -0.00000     0.09942     0.00000    -0.00000     0.00655
           GZ3             -0.08735     0.00000    -0.02941     0.04091     0.00000
           GX4              0.00000    -0.08193    -0.00000     0.00000     0.03754
           GY4              0.00000    -0.03612    -0.00000     0.00000    -0.16515
           GZ4              0.01380     0.00000    -0.08708     0.08541    -0.00000
           GX5              0.00000    -0.04793    -0.00000     0.00000     0.16508
           GY5              0.00000    -0.07770    -0.00000     0.00000     0.21430
           GZ5             -0.44104    -0.00000     0.33946     0.36559     0.00000
           GX6             -0.00000     0.17239     0.00000    -0.00000     0.11373
           GY6             -0.00000     0.03079     0.00000    -0.00000    -0.20737
           GZ6             -0.01985    -0.00001     0.42554     0.26916    -0.00000
           GX7              0.00000    -0.17239    -0.00000     0.00000     0.11375
           GY7             -0.00000     0.03080     0.00000    -0.00000     0.20736
           GZ7              0.01985    -0.00002     0.42554    -0.26916     0.00000
           GX8             -0.00000     0.04793     0.00000    -0.00000     0.16507
           GY8             -0.00000    -0.07770    -0.00000     0.00000    -0.21431
           GZ8              0.44104    -0.00002     0.33946    -0.36558    -0.00000
           GX9             -0.00000    -0.00000    -0.00000     0.00000    -0.01568
           GY9              0.00000    -0.08993    -0.00000     0.00000     0.00000
           GZ9              0.00000    -0.00000     0.12327     0.00000    -0.00000
           GX10            -0.00000    -0.00000     0.00000     0.00000    -0.04333
           GY10            -0.00000    -0.03151    -0.00000     0.00000     0.00000
           GZ10             0.00000     0.00000    -0.00325     0.00000    -0.00000
           GX11            -0.00000     0.07918     0.00000    -0.00000    -0.06015
           GY11            -0.00000     0.01623     0.00000    -0.00000    -0.00746
           GZ11             0.45602     0.00001    -0.09204     0.42788     0.00000
           GX12             0.00000    -0.07918    -0.00000     0.00000    -0.06015
           GY12             0.00000     0.01623     0.00000     0.00000     0.00746
           GZ12            -0.45603    -0.00001    -0.09204    -0.42788     0.00000

                             11 A        12 A        13 A        14 A        15 A  
 Wavenumbers [cm-1]         1038.16     1052.36     1054.96     1056.53     1092.28
 Intensities [km/mol]          0.00        0.00        0.00        0.00        0.00
 Intensities [relative]        0.00        0.00        0.00        0.00        0.00
           GX1              0.00465     0.00000    -0.00772     0.00000     0.00000
           GY1              0.08665    -0.00000     0.06200    -0.00000     0.00000
           GZ1              0.00000     0.06749     0.00000     0.06043    -0.01322
           GX2             -0.01448    -0.00000     0.04465    -0.00000    -0.00000
           GY2             -0.02147    -0.00000     0.15034    -0.00001    -0.00000
           GZ2             -0.00000    -0.07115    -0.00001    -0.09581     0.00843
           GX3              0.01447    -0.00000     0.04464    -0.00000     0.00000
           GY3             -0.02147     0.00000    -0.15034     0.00001     0.00000
           GZ3              0.00000    -0.07115     0.00000     0.09581     0.00843
           GX4             -0.00465     0.00000    -0.00773     0.00000    -0.00000
           GY4              0.08665     0.00000    -0.06200     0.00000     0.00000
           GZ4             -0.00000     0.06749    -0.00000    -0.06043    -0.01322
           GX5              0.12760     0.00000    -0.15200     0.00001     0.00000
           GY5              0.13186     0.00000     0.02174    -0.00000    -0.00000
           GZ5              0.00000    -0.42077    -0.00002    -0.29882     0.06623
           GX6              0.03200     0.00000    -0.07917     0.00000     0.00000
           GY6             -0.08730    -0.00001     0.34869    -0.00002    -0.00000
           GZ6             -0.00000     0.44195     0.00003     0.50315    -0.04676
           GX7             -0.03201     0.00000    -0.07919     0.00000    -0.00000
           GY7             -0.08730     0.00001    -0.34869     0.00002     0.00000
           GZ7             -0.00000     0.44195    -0.00002    -0.50315    -0.04676
           GX8             -0.12759     0.00000    -0.15200     0.00001    -0.00000
           GY8              0.13187     0.00000    -0.02173     0.00000    -0.00000
           GZ8              0.00000    -0.42078     0.00001     0.29881     0.06623
           GX9             -0.00000     0.00000    -0.00464     0.00000    -0.00000
           GY9             -0.05892    -0.00000     0.00000     0.00000    -0.00000
           GZ9             -0.00000     0.00935     0.00000     0.00000     0.05179
           GX10            -0.00000     0.00000    -0.02413     0.00000     0.00000
           GY10            -0.10997    -0.00000     0.00000     0.00000     0.00000
           GZ10             0.00000    -0.01901    -0.00000    -0.00000    -0.14428
           GX11             0.47865     0.00000    -0.03725     0.00000     0.00000
           GY11             0.18491     0.00000    -0.00606    -0.00000    -0.00000
           GZ11            -0.00000     0.08000     0.00000    -0.02662     0.58868
           GX12            -0.47864    -0.00000    -0.03725     0.00000    -0.00000
           GY12             0.18495     0.00000     0.00606    -0.00000    -0.00000
           GZ12            -0.00000     0.08000     0.00000     0.02662     0.58868

                             16 A        17 A        18 A        19 A        20 A  
 Wavenumbers [cm-1]         1198.43     1201.78     1367.45     1468.50     1490.94
 Intensities [km/mol]          0.00        0.00        0.00        0.00        0.00
 Intensities [relative]        0.00        0.00        0.00        0.00        0.00
           GX1              0.01581     0.04256     0.03170    -0.07023    -0.05682
           GY1             -0.01133    -0.05439    -0.02941    -0.08754    -0.04444
           GZ1             -0.00000    -0.00000    -0.00000    -0.00000    -0.00000
           GX2             -0.05183    -0.01915     0.02562     0.00151     0.00983
           GY2             -0.01136     0.01913    -0.02997     0.05560     0.09999
           GZ2              0.00000    -0.00000    -0.00000     0.00000     0.00000
           GX3             -0.05183     0.01915    -0.02562    -0.00150     0.00982
           GY3              0.01137     0.01913    -0.02997     0.05560    -0.09999
           GZ3             -0.00000     0.00000    -0.00000     0.00000    -0.00000
           GX4              0.01581    -0.04257    -0.03170     0.07023    -0.05682
           GY4              0.01133    -0.05439    -0.02941    -0.08754     0.04445
           GZ4             -0.00000     0.00000     0.00000    -0.00000     0.00000
           GX5              0.48673     0.46808    -0.33003     0.22640     0.28519
           GY5              0.14145     0.08087    -0.15391     0.00274     0.06995
           GZ5              0.00000     0.00000    -0.00000    -0.00000     0.00000
           GX6             -0.28909    -0.26011    -0.15566     0.21655     0.25520
           GY6              0.32454     0.36728     0.23441    -0.25813    -0.23738
           GZ6              0.00000     0.00000     0.00000    -0.00000    -0.00000
           GX7             -0.28911     0.26014     0.15568    -0.21657     0.25521
           GY7             -0.32452     0.36727     0.23440    -0.25812     0.23736
           GZ7              0.00000    -0.00000     0.00000    -0.00000    -0.00000
           GX8              0.48672    -0.46807     0.33002    -0.22640     0.28519
           GY8             -0.14148     0.08090    -0.15393     0.00276    -0.06997
           GZ8              0.00000     0.00000    -0.00000     0.00000    -0.00000
           GX9             -0.00720     0.00000     0.00001     0.00000    -0.06413
           GY9              0.00000     0.00418     0.16169     0.13880     0.00000
           GZ9             -0.00000    -0.00000     0.00000     0.00000    -0.00000
           GX10             0.03497    -0.00000    -0.00000    -0.00000     0.02551
           GY10            -0.00000    -0.01076    -0.06936    -0.03977    -0.00000
           GZ10             0.00000    -0.00000    -0.00000    -0.00000     0.00000
           GX11             0.06615     0.03709     0.23043     0.13415     0.24978
           GY11             0.01478     0.01114     0.07700     0.04600     0.12363
           GZ11            -0.00000     0.00000     0.00000     0.00000     0.00000
           GX12             0.06615    -0.03709    -0.23043    -0.13414     0.24977
           GY12            -0.01478     0.01115     0.07701     0.04601    -0.12365
           GZ12            -0.00000    -0.00000     0.00000     0.00000    -0.00000

                             21 A        22 A        23 A        24 A        25 A  
 Wavenumbers [cm-1]         1578.69     1686.10     1775.15     1857.74     3316.90
 Intensities [km/mol]          0.00        0.00        0.00        0.00        0.00
 Intensities [relative]        0.00        0.00        0.00        0.00        0.00
           GX1              0.00926     0.13518    -0.12419    -0.03838    -0.00065
           GY1              0.03984    -0.03496     0.02269    -0.00833     0.00088
           GZ1              0.00000    -0.00000     0.00000    -0.00000     0.00000
           GX2              0.03224    -0.11155     0.13417     0.00284     0.00005
           GY2             -0.05793     0.06442    -0.05050    -0.00072    -0.00012
           GZ2             -0.00000     0.00000    -0.00000    -0.00000     0.00000
           GX3              0.03225    -0.11156    -0.13417     0.00284     0.00005
           GY3              0.05793    -0.06441    -0.05049     0.00072     0.00012
           GZ3              0.00000     0.00000     0.00000    -0.00000    -0.00000
           GX4              0.00926     0.13519     0.12419    -0.03838    -0.00065
           GY4             -0.03984     0.03496     0.02268     0.00833    -0.00088
           GZ4             -0.00000    -0.00000    -0.00000    -0.00000    -0.00000
           GX5             -0.16344    -0.09474     0.07095     0.07831     0.00491
           GY5             -0.00656    -0.13120     0.11169     0.02587    -0.01112
           GZ5             -0.00000    -0.00000     0.00000     0.00000    -0.00000
           GX6             -0.08571    -0.02377    -0.01208     0.00277     0.00426
           GY6              0.11381    -0.09577     0.20636     0.00210     0.00220
           GZ6              0.00000    -0.00000     0.00000     0.00000     0.00000
           GX7             -0.08571    -0.02376     0.01210     0.00277     0.00426
           GY7             -0.11380     0.09577     0.20636    -0.00210    -0.00220
           GZ7             -0.00000     0.00000     0.00000    -0.00000    -0.00000
           GX8             -0.16344    -0.09473    -0.07094     0.07831     0.00491
           GY8              0.00657     0.13121     0.11169    -0.02588     0.01112
           GZ8              0.00000    -0.00000     0.00000     0.00000     0.00000
           GX9             -0.09422     0.00083    -0.00000     0.20703    -0.00891
           GY9              0.00000     0.00000    -0.00644    -0.00001     0.00000
           GZ9             -0.00000    -0.00000    -0.00000     0.00000    -0.00000
           GX10            -0.02765    -0.04482     0.00000    -0.16717     0.06731
           GY10             0.00000     0.00000     0.00892     0.00001    -0.00000
           GZ10             0.00000    -0.00000     0.00000    -0.00000     0.00000
           GX11             0.48069     0.09899    -0.01639     0.10502    -0.34987
           GY11             0.29694     0.09102    -0.00141     0.19457     0.58822
           GZ11             0.00000     0.00000    -0.00000     0.00000     0.00000
           GX12             0.48067     0.09898     0.01639     0.10500    -0.34990
           GY12            -0.29697    -0.09102    -0.00142    -0.19457    -0.58820
           GZ12            -0.00000    -0.00000     0.00000    -0.00000    -0.00000

                             26 A        27 A        28 A        29 A        30 A  
 Wavenumbers [cm-1]         3376.70     3386.39     3403.00     3404.28     3410.65
 Intensities [km/mol]          0.00        0.00        0.00        0.00        0.00
 Intensities [relative]        0.00        0.00        0.00        0.00        0.00
           GX1             -0.00701     0.01117    -0.01017     0.01796     0.01808
           GY1              0.02698    -0.03857     0.02524    -0.04280    -0.04254
           GZ1              0.00000    -0.00000     0.00000    -0.00000    -0.00000
           GX2             -0.04273     0.03400     0.01520    -0.02504    -0.03795
           GY2             -0.02750     0.02537     0.00696    -0.01131    -0.02300
           GZ2             -0.00000     0.00000     0.00000    -0.00000    -0.00000
           GX3              0.04272     0.03400    -0.01519     0.02504    -0.03795
           GY3             -0.02750    -0.02537     0.00697    -0.01131     0.02300
           GZ3             -0.00000    -0.00000     0.00000    -0.00000     0.00000
           GX4              0.00701     0.01117     0.01017    -0.01796     0.01808
           GY4              0.02698     0.03857     0.02524    -0.04280     0.04254
           GZ4              0.00000     0.00000     0.00000    -0.00000     0.00000
           GX5              0.10330    -0.14455     0.09395    -0.15939    -0.15402
           GY5             -0.31811     0.44333    -0.27653     0.47918     0.45833
           GZ5             -0.00000     0.00000    -0.00000     0.00000     0.00000
           GX6              0.48506    -0.39985    -0.14295     0.23504     0.38064
           GY6              0.32992    -0.27915    -0.09465     0.15583     0.26146
           GZ6              0.00000    -0.00000    -0.00000     0.00000     0.00000
           GX7             -0.48503    -0.39983     0.14294    -0.23503     0.38063
           GY7              0.32994     0.27918    -0.09466     0.15585    -0.26148
           GZ7              0.00000     0.00000    -0.00000     0.00000    -0.00000
           GX8             -0.10332    -0.14458    -0.09397     0.15942    -0.15405
           GY8             -0.31810    -0.44333    -0.27652     0.47916    -0.45832
           GZ8             -0.00000    -0.00000    -0.00000     0.00000    -0.00000
           GX9             -0.00000     0.00139    -0.00000     0.00000     0.00262
           GY9             -0.00127    -0.00000    -0.00267     0.00187    -0.00000
           GZ9             -0.00000     0.00000    -0.00000     0.00000     0.00000
           GX10            -0.00000     0.00089    -0.00000    -0.00000    -0.00010
           GY10            -0.00058    -0.00000    -0.08135    -0.04821     0.00000
           GZ10            -0.00000    -0.00000    -0.00000    -0.00000     0.00000
           GX11            -0.00343    -0.00745    -0.30252    -0.17670    -0.00482
           GY11             0.00534     0.00948     0.48809     0.28592     0.00464
           GZ11             0.00000     0.00000     0.00000     0.00000     0.00000
           GX12             0.00343    -0.00745     0.30255     0.17672    -0.00482
           GY12             0.00534    -0.00948     0.48807     0.28591    -0.00464
           GZ12             0.00000    -0.00000     0.00000     0.00000    -0.00000


 Normal Modes of low/zero frequencies

                                  1           2           3           4           5
 Wavenumbers [cm-1]            0.00        0.00        0.00        0.00        0.00
 Intensities [km/mol]          0.00        0.00        0.00        0.00        0.00
 Intensities [relative]        0.00        0.00        0.00        0.00        0.00
           GX1              0.12589    -0.00040     0.00491    -0.01040    -0.03644
           GY1              0.00783     0.01921     0.01352     0.10728     0.02661
           GZ1              0.08170     0.00513    -0.00226    -0.01306     0.06407
           GX2              0.10908     0.02361     0.00292    -0.01313    -0.02609
           GY2             -0.04076     0.08862     0.00777     0.09939     0.05654
           GZ2              0.05703     0.03714    -0.00603     0.01233    -0.04890
           GX3              0.05220     0.10487    -0.00382    -0.02237     0.00896
           GY3             -0.04076     0.08862     0.00777     0.09939     0.05654
           GZ3             -0.01549     0.04943     0.09973     0.01781    -0.13784
           GX4              0.03539     0.12888    -0.00581    -0.02510     0.01931
           GY4              0.00783     0.01920     0.01352     0.10728     0.02661
           GZ4             -0.03366     0.02468     0.16599    -0.00435    -0.07741
           GX5              0.16508    -0.05639     0.00955    -0.00404    -0.06059
           GY5              0.02081     0.00066     0.01506     0.10939     0.01861
           GZ5              0.13254    -0.01092    -0.06577    -0.02319     0.14851
           GX6              0.13244    -0.00975     0.00569    -0.00934    -0.04048
           GY6             -0.07484     0.13730     0.00373     0.09386     0.07754
           GZ6              0.08452     0.05200    -0.07400     0.02676    -0.07319
           GX7              0.02884     0.13824    -0.00658    -0.02616     0.02335
           GY7             -0.07484     0.13730     0.00373     0.09386     0.07754
           GZ7             -0.04755     0.07438     0.11861     0.03674    -0.23515
           GX8             -0.00380     0.18486    -0.01045    -0.03146     0.04346
           GY8              0.02081     0.00066     0.01506     0.10939     0.01861
           GZ8             -0.08275     0.02557     0.24820    -0.00693    -0.11552
           GX9              0.08064     0.06424    -0.00045    -0.01775    -0.00857
           GY9              0.04222    -0.02992     0.01760     0.11286     0.00542
           GZ9              0.02633    -0.00518     0.10664    -0.02554     0.05469
           GX10             0.08064     0.06423    -0.00045    -0.01775    -0.00857
           GY10             0.09336    -0.10297     0.02365     0.12117    -0.02609
           GZ10             0.02975    -0.03504     0.14348    -0.05056     0.14593
           GX11             0.11596     0.01379     0.00373    -0.01202    -0.03033
           GY11             0.11496    -0.13384     0.02621     0.12467    -0.03940
           GZ11             0.07622    -0.05529     0.09339    -0.06454     0.23969
           GX12             0.04533     0.11468    -0.00463    -0.02348     0.01319
           GY12             0.11497    -0.13384     0.02621     0.12468    -0.03940
           GZ12            -0.01382    -0.04003     0.22470    -0.05773     0.12927

                                  6
 Wavenumbers [cm-1]            0.00
 Intensities [km/mol]          0.00
 Intensities [relative]        0.00
           GX1             -0.05164
           GY1             -0.00646
           GZ1              0.15634
           GX2             -0.04815
           GY2              0.00364
           GZ2              0.17018
           GX3             -0.03632
           GY3              0.00364
           GZ3              0.06502
           GX4             -0.03282
           GY4             -0.00647
           GZ4             -0.01096
           GX5             -0.05979
           GY5             -0.00916
           GZ5              0.21679
           GX6             -0.05300
           GY6              0.01072
           GZ6              0.24486
           GX7             -0.03146
           GY7              0.01072
           GZ7              0.05333
           GX8             -0.02467
           GY8             -0.00916
           GZ8             -0.09542
           GX9             -0.04223
           GY9             -0.01362
           GZ9              0.04090
           GX10            -0.04223
           GY10            -0.02425
           GZ10            -0.00636
           GX11            -0.04958
           GY11            -0.02874
           GZ11             0.03895
           GX12            -0.03489
           GY12            -0.02874
           GZ12            -0.09162


 FREQUENCIES * CALCULATION OF THERMODYNAMICAL PROPERTIES

 Temperature   298.150 [K]  Pressure   1.00000 [atm]
 Atom  1: C         Mass  12.01100
 Atom  2: C         Mass  12.01100
 Atom  3: C         Mass  12.01100
 Atom  4: C         Mass  12.01100
 Atom  5: H         Mass   1.00794
 Atom  6: H         Mass   1.00794
 Atom  7: H         Mass   1.00794
 Atom  8: H         Mass   1.00794
 Atom  9: C         Mass  12.01100
 Atom 10: C         Mass  12.01100
 Atom 11: H         Mass   1.00794
 Atom 12: H         Mass   1.00794

 Molecular Mass:    78.11364 [a.u.]
 Moments of Inertia         468.99927   688.23516   219.23589 [a.u.]
 Point Group AUT   Order of principal axis37
 Rotational Symmetry factor  1.0
 WARNING: Low Rotational Temperature. Assumption of Classical Rotation may not be valid any more!
 Rotational Temperatures      0.18467     0.12585     0.39506 [K]
 Rotational Constants         3.84801     2.62223     8.23184 [GHz]

 WARNING: Using the   3 Vibrational Modes  with wavenumbers below 1000 [1/cm]
 may cause significant error at T =     298.150 [K]: Use 0.5*RT instead.

 Vibrational Temperatures [K]    315.84   530.34   773.01   960.19  1035.66
                                1102.57  1239.39  1246.35  1246.66  1387.52
                                1493.67  1514.10  1517.84  1520.11  1571.54
                                1724.26  1729.09  1967.45  2112.83  2145.12
                                2271.37  2425.90  2554.03  2672.86  4772.25
                                4858.29  4872.24  4896.13  4897.97  4907.14

 Zero-Point vibrational Energy      275.467 [kJ/Mol]
                                     65.838 [kcal/Mol]

 Electronic Energy at 0 [K]:                      -230.663954 [H]
 Electronic Energy + Zero-Point correction:       -230.559034 [H]
 Electronic Energy at     298.150 [K]:            -230.554377 [H]
 Enthalpy H at            298.150 [K]:            -230.553432 [H]
 Free Enthalpy G at       298.150 [K]:            -230.586853 [H]

 Partition Function  Z                 log10(Z)          ln(Z)
 Electronic      0.100000D+01          0.000000          0.000000
 Translation     0.271369D+08          7.433561         17.116406
 Rotation        0.952291D+05          4.978770         11.464041
 Vibration       0.241685D+01          0.383249          0.882463
 Vibration    1  0.153066D+01          0.184878          0.425697
 Vibration    2  0.120315D+01          0.080319          0.184941
 Vibration    3  0.108087D+01          0.033773          0.077766
 Total           0.624567D+13         12.795579         28.580447

                       H(T)-H(0)              Cv                 S
                       [kJ/Mol]          [J/Mol K]          [J/Mol K] 
 Electronic               0.000              0.000              0.000
 Translation              3.718             12.472            163.101
 Rotation                 3.718             12.472            107.790
 Vibration                4.792             47.681             23.411
 Vibration  1             2.707              7.579              8.213
 Vibration  2             3.101              6.430              4.542
 Vibration  3             3.733              4.885              2.390
 Volume (RT)              2.479              0.000              0.000
 Total                   14.708             72.624            294.301

 Thermal energies including ZPE:

 H(T)-E(0)              290.175 kJ/Mol
 U(T)-E(0)              287.696 kJ/Mol

                       H(T)-H(0)              Cv                 S
                       [kcal/Mol]        [cal/Mol K]        [cal/Mol K] 
 Electronic               0.000              0.000              0.000
 Translation              0.889              2.981             38.982
 Rotation                 0.889              2.981             25.762
 Vibration                1.145             11.396              5.595
 Vibration  1             0.647              1.811              1.963
 Vibration  2             0.741              1.537              1.086
 Vibration  3             0.892              1.168              0.571
 Volume (RT)              0.592              0.000              0.000
 Total                    3.515             17.358             70.340

 Thermal energies including ZPE:

 H(T)-E(0)               69.353 kcal/Mol
 U(T)-E(0)               68.761 kcal/Mol
 Frequency information read from record  5400.2


1PROGRAM * MP2 (Closed-shell)     Authors: C. Hampel, H.-J. Werner, 1991, M. Deegan, P.J. Knowles, 1992


 Convergence thresholds:  THRVAR = 1.00D-12  THRDEN = 1.00D-08

 Number of core orbitals:           6 (   6 )
 Number of closed-shell orbitals:  15 (  15 )
 Number of external orbitals:     123 ( 123 )

 Molecular orbitals read from record     2100.2  Type=RHF/CANONICAL (state 1.1)

 Number of N-1 electron functions:              15
 Number of N-2 electron functions:             120
 Number of singly external CSFs:              1845
 Number of doubly external CSFs:           1702935
 Total number of CSFs:                     1704781

 Length of J-op  integral file:               0.00 MB
 Length of K-op  integral file:               1.46 MB

 Integral transformation finished. Total CPU:   1.24 sec, npass=  1  Memory used:   4.56 MW

 Memory needed for MP2:                      0.10 MW

 SCS-MP2 correlation energy:           -0.773445187257   (PS=  1.200000  PT=  0.333333)
 SCS-MP2 total energy:               -231.437399351521


  Reference energy                   -230.663954164264
  MP2 singlet pair energy              -0.491567634945
  MP2 triplet pair energy              -0.295013612126
  MP2 correlation energy               -0.786581247071

 !MP2 total energy                   -231.450535411335

 KEXT needed  1 integral passes. Memory used:   5.28 MW  CPU time:      4.27 sec


 Starting Coupled-perturbed Hartree-Fock, convergence threshold= 1.0D-06

 ITER   MIC  DIIS      VAR         VARC       CPU
   1     0     1    0.67D-01    0.26D-02     0.47
   2     6     2    0.59D-03    0.19D-03     0.96
   3     4     3    0.12D-04    0.28D-05     1.44
   4     3     4    0.83D-06    0.17D-06     1.91

 CPHF convergence reached in  4 macroiterations and   13 microiterations.   Accuracy: 8.3278D-07

 CPHF solution written to record  4101.2

 Dipole moments (unrelaxed):           -0.19500146     0.00000634    -0.00000078
 Orbital relaxation contribution:      -0.04180332     0.00000138     0.00000006
 !!MP2 STATE 1.1 Dipole moment         -0.23680479     0.00000773    -0.00000072
 Dipole moment /Debye                  -0.60185831     0.00001964    -0.00000183
 
 CPU-time for density and lagrangian:                  0.63 sec
 CPU-time for coupled-perturbed hartree-fock:          1.91 sec

 MP2 Gradient info saved on record         5200.1


 **********************************************************************************************************************************
 DATASETS  * FILE   NREC   LENGTH (MB)   RECORD NAMES
              1      21      219.82       500      610      700      900      950      970     1000      129      960     1100   
                                          VAR    BASINP    GEOM    SYMINP    ZMAT    AOBASIS   BASIS     P2S    ABASIS      S 
                                         1400     1410     1200     1210     1080     1600     1650     1300     1700     1380   
                                           T        V       H0       H01     AOSYM     SMH    MOLCAS    ERIS     OPER     JKOP   
                                         5200   
                                          MP2  

              2      11        2.66       500      610      700     1000      520     2100     5300     5400     5450     4100   
                                          VAR    BASINP    GEOM     BASIS   MCVARS     RHF     HESS     FREQ     NMOD     CPHF   
                                         4101   
                                         CPHF   

 PROGRAMS   *        TOTAL       MP2      FREQ      OPTG        HF       INT      FILE
 CPU TIMES  *       650.89      8.65    495.64    134.69      6.54      5.30      0.00
 REAL TIME  *       685.85 SEC
 DISK USED  *       757.06 MB      
 **********************************************************************************************************************************


 PROGRAM * OPT (Geometry optimization)     Authors: F. Eckert and H.-J. Werner


 BFGS update of hessian

 Geometry optimization using default procedure for command MP2

 Geometry written to block  1 of record 700

 HF-SCF hessian read from record  5300.2

 Quadratic Steepest Descent - Minimum Search

 ITER.   ENERGY(OLD)    ENERGY(NEW)      DE          GRADMAX     GRADNORM    GRADRMS     STEPMAX     STEPLEN     STEPRMS   CPU-time
   1  -231.45053541  -231.45291856    -0.00238315  0.04363936  0.06605883  0.00220196  0.06517104  0.10287625  0.02969781     38.33
   2  -231.45291856  -231.45294330    -0.00002474  0.00515761  0.00691008  0.00023034  0.00651871  0.00948630  0.00273846     75.13
   3  -231.45294330  -231.45294346    -0.00000016  0.00049952  0.00059398  0.00001980  0.00043131  0.00073849  0.00021318    110.49
   4  -231.45294346  -231.45294346    -0.00000000  0.00001242  0.00001317  0.00000044  0.00002250  0.00003073  0.00000887    144.45

 END OF GEOMETRY OPTIMIZATION.

 Current geometry (xyz format, in Angstrom)

   12
 MP2/6-31++G**  ENERGY=-231.45294346
 C          0.1204055491        1.1789495536        0.0000002798
 C          1.4103244941        0.7348358439        0.0000001457
 C          1.4102767424       -0.7349610925       -0.0000015910
 C          0.1203289579       -1.1789910276       -0.0000023865
 H         -0.2233177633        2.2038396925        0.0000013838
 H          2.2992157681        1.3510880389        0.0000011309
 H          2.2991280133       -1.3512709677       -0.0000019735
 H         -0.2234608733       -2.2038588595       -0.0000037179
 C         -0.7561396887        0.0000077346       -0.0000013477
 C         -2.1093552450        0.0000515795       -0.0000007039
 H         -2.6712630190        0.9261687887        0.0000004452
 H         -2.6713229355       -0.9260292844       -0.0000016649

 **********************************************************************************************************************************

 Geometry written to block  1 of record 700


 **********************************************************************************************************************************
 DATASETS  * FILE   NREC   LENGTH (MB)   RECORD NAMES
              1      21      219.15       500      610      700      900      950      970     1000      129      960     1100   
                                          VAR    BASINP    GEOM    SYMINP    ZMAT    AOBASIS   BASIS     P2S    ABASIS      S 
                                         1400     1410     1200     1210     1080     1600     1650     1300     1700     1380   
                                           T        V       H0       H01     AOSYM     SMH    MOLCAS    ERIS     OPER     JKOP   
                                         5200   
                                          MP2  

              2      12        2.75       500      610      700     1000      520     2100     5300     5400     5450     4100   
                                          VAR    BASINP    GEOM     BASIS   MCVARS     RHF     HESS     FREQ     NMOD     CPHF   
                                         4101     9001   
                                         CPHF    DEN_MP2    

 PROGRAMS   *        TOTAL      OPTG       MP2      FREQ      OPTG        HF       INT      FILE
 CPU TIMES  *       795.34    144.45      8.65    495.64    134.69      6.54      5.30      0.00
 REAL TIME  *       844.31 SEC
 DISK USED  *       757.06 MB      
 **********************************************************************************************************************************


 PROGRAM * HESSIAN

 Computing numerical hessian using default procedure for command MP2

 Using no symmetry in wavefunction calculations

 Running default procedure: HF-SCF000  MP2
 

 Numerically approximating hessian using central gradient differences

 Task list generated. Total number of displacements:     72

    7 tasks completed, CPU=4m 28s Elapsed=4m 40s
   14 tasks completed, CPU=8m 57s Elapsed=9m 31s
   21 tasks completed, CPU=13m 24s Elapsed=14m 12s
   28 tasks completed, CPU=17m 50s Elapsed=18m 51s
   35 tasks completed, CPU=22m 11s Elapsed=23m 26s
   42 tasks completed, CPU=26m 34s Elapsed=28m 4s
   49 tasks completed, CPU=30m 59s Elapsed=32m 42s
   56 tasks completed, CPU=35m 26s Elapsed=37m 24s
   63 tasks completed, CPU=39m 49s Elapsed=42m 2s
   70 tasks completed, CPU=44m 14s Elapsed=46m 41s

 Numerical MP2 hessian completed. CPU-time:  2728.92 sec, Elapsed:  2880.83 sec

 MP2 hessian saved to record  5301.2

 FREQUENCIES * CALCULATION OF HARMONIC VIBRATIONAL SPECTRA FOR MP2


 Permanent Dipole Moment [debye]
   1-  3   -0.696965    0.000023    0.000001

 Dipole Moment Norm    0.6969650 [debye]

 Dipole Moment Derivatives [debye/ang]
                   1             2             3             4             5             6             7             8
         1     1.0515679     0.4104505     0.0000002    -0.7990484     1.9423430     0.0000033    -0.7991961    -1.9422564
         2     0.3037503    -0.5902760    -0.0000007     0.3232668     0.5066946     0.0000013    -0.3231818     0.5068417
         3    -0.0000003    -0.0000004    -0.9412164    -0.0000039     0.0000013    -0.8200566     0.0000005     0.0000014
                   9            10            11            12            13            14            15            16
         1    -0.0000028     1.0515230    -0.4105582     0.0000000     0.2625189     0.0715521    -0.0000001    -0.1519557
         2     0.0000015    -0.3038575    -0.5902295     0.0000005     0.2333390    -0.2730184    -0.0000012    -0.3632477
         3    -0.8200565     0.0000016    -0.0000001    -0.9412122     0.0000003    -0.0000016     0.8584621    -0.0000009
                  17            18            19            20            21            22            23            24
         1    -0.3781504    -0.0000005    -0.1519076     0.3781608     0.0000001     0.2624991    -0.0715869    -0.0000006
         2     0.0084615    -0.0000010     0.3632581     0.0084133    -0.0000008    -0.2333739    -0.2729985    -0.0000016
         3    -0.0000012     0.7801617     0.0000003    -0.0000006     0.7801613    -0.0000004    -0.0000014     0.8584613
                  25            26            27            28            29            30            31            32
         1    -1.3545632     0.0000559    -0.0000014     0.4366421     0.0000108     0.0000043     0.0959662     0.3113736
         2     0.0000555     0.3516337     0.0000016     0.0000109     0.7598124     0.0000027     0.0783168    -0.2074033
         3    -0.0000012     0.0000004    -0.0568580    -0.0000012     0.0000043    -1.0634810     0.0000002    -0.0000011
                  33            34            35            36
         1    -0.0000007     0.0959407    -0.3113927    -0.0000010
         2    -0.0000007    -0.0783361    -0.2073780    -0.0000007
         3     0.6826945    -0.0000002    -0.0000008     0.6826946

 Projecting out rotations and translations

 Imaginary Vibration  Wavenumber
        Nr             [1/cm] 
        1                7.73

   Low Vibration      Wavenumber
        Nr             [1/cm] 
        1                0.00
        2                0.00
        3                0.00
        4                0.00
        5                0.00
        6                0.00

     Vibration        Wavenumber
        Nr             [1/cm] 
        1              337.63
        2              421.40
        3              457.34
        4              625.03
        5              678.89
        6              687.22
        7              740.38
        8              803.73
        9              814.38
       10              832.24
       11              863.15
       12              927.66
       13              980.87
       14             1035.88
       15             1118.56
       16             1120.30
       17             1281.22
       18             1373.21
       19             1396.89
       20             1483.40
       21             1537.99
       22             1609.35
       23             1707.58
       24             3224.27
       25             3282.23
       26             3291.01
       27             3306.69
       28             3313.06
       29             3325.71

 FREQUENCIES * CALCULATION OF NORMAL MODES FOR MP2


 Atomic Coordinates

  Nr  Atom  Charge       X              Y              Z

   1   C     6.00    0.227533513    2.227891779    0.000000529
   2   C     6.00    2.665127050    1.388638497    0.000000275
   3   C     6.00    2.665036813   -1.388875182   -0.000003007
   4   C     6.00    0.227388776   -2.227970154   -0.000004510
   5   H     1.00   -0.422009413    4.164653456    0.000002615
   6   H     1.00    4.344888119    2.553186373    0.000002137
   7   H     1.00    4.344722286   -2.553532058   -0.000003729
   8   H     1.00   -0.422279852   -4.164689677   -0.000007026
   9   C     6.00   -1.428896929    0.000014616   -0.000002547
  10   C     6.00   -3.986103727    0.000097471   -0.000001330
  11   H     1.00   -5.047955531    1.750205362    0.000000841
  12   H     1.00   -5.048068757   -1.749941737   -0.000003146

 Frequencies dumped to record   5401.2

 Gradient norm at reference geometry: 0.13175D-04
 
 Molecule is not in standard orientation!
 Symmetry information for normal modes not available!

 Normal Modes

                              1 A         2 A         3 A         4 A         5 A  
 Wavenumbers [cm-1]          337.63      421.40      457.34      625.03      678.89
 Intensities [km/mol]          0.22        0.00        0.03        0.00        0.04
 Intensities [relative]        0.15        0.00        0.02        0.00        0.03
           GX1             -0.06212    -0.00000     0.00000    -0.00000    -0.05726
           GY1             -0.06793     0.00000     0.00000     0.00001     0.05387
           GZ1              0.00000    -0.10350    -0.13787    -0.00190    -0.00003
           GX2             -0.03832     0.00000     0.00000    -0.00000    -0.08687
           GY2              0.02890     0.00000    -0.00000     0.00001     0.01028
           GZ2             -0.00000     0.13443     0.06050    -0.10915    -0.00002
           GX3              0.03833    -0.00000    -0.00000    -0.00002    -0.08687
           GY3              0.02889     0.00000    -0.00000     0.00000    -0.01027
           GZ3              0.00000    -0.13443     0.06050     0.10915    -0.00004
           GX4              0.06212    -0.00000    -0.00000    -0.00001    -0.05726
           GY4             -0.06794    -0.00001     0.00000    -0.00002    -0.05387
           GZ4             -0.00001     0.10350    -0.13787     0.00190    -0.00004
           GX5             -0.15322    -0.00001     0.00000    -0.00002    -0.16326
           GY5             -0.09816    -0.00000     0.00000     0.00000     0.01622
           GZ5             -0.00002     0.06499    -0.16926     0.45609     0.00031
           GX6             -0.07649     0.00000     0.00000     0.00001    -0.04565
           GY6              0.08268     0.00000    -0.00000    -0.00000    -0.04976
           GZ6             -0.00002     0.28043     0.01567     0.20455     0.00027
           GX7              0.07650     0.00000    -0.00000    -0.00001    -0.04565
           GY7              0.08268     0.00001    -0.00000     0.00002     0.04976
           GZ7              0.00001    -0.28043     0.01567    -0.20455     0.00032
           GX8              0.15321     0.00001    -0.00000    -0.00001    -0.16327
           GY8             -0.09817    -0.00001     0.00000    -0.00002    -0.01621
           GZ8             -0.00000    -0.06498    -0.16926    -0.45609     0.00047
           GX9             -0.00000     0.00000    -0.00000     0.00001     0.11593
           GY9             -0.10455    -0.00000     0.00000    -0.00000    -0.00000
           GZ9              0.00000    -0.00000     0.17724    -0.00000     0.00002
           GX10             0.00000     0.00000    -0.00000     0.00002     0.17533
           GY10             0.13674     0.00001    -0.00000     0.00000    -0.00001
           GZ10            -0.00000    -0.00000    -0.01259     0.00000    -0.00002
           GX11             0.24869     0.00001    -0.00000     0.00002     0.19098
           GY11             0.28888     0.00001    -0.00000     0.00000     0.00557
           GZ11             0.00001    -0.26493     0.09451    -0.32278     0.00009
           GX12            -0.24867    -0.00001     0.00000     0.00002     0.19098
           GY12             0.28889     0.00001    -0.00000     0.00000    -0.00558
           GZ12            -0.00001     0.26493     0.09452     0.32278     0.00006

                              6 A         7 A         8 A         9 A        10 A  
 Wavenumbers [cm-1]          687.22      740.38      803.73      814.38      832.24
 Intensities [km/mol]        142.91        0.00        0.00        0.72       20.01
 Intensities [relative]      100.00        0.00        0.00        0.50       14.00
           GX1              0.00005    -0.00001     0.00003     0.08280    -0.00000
           GY1             -0.00004     0.00000    -0.00001    -0.04033    -0.00000
           GZ1             -0.04676    -0.09014     0.01451    -0.00000     0.04762
           GX2              0.00008    -0.00002     0.00004     0.12465    -0.00000
           GY2              0.00001    -0.00001     0.00003     0.10006    -0.00000
           GZ2             -0.03811    -0.00451    -0.05337     0.00002    -0.02826
           GX3              0.00005     0.00001    -0.00003    -0.12463     0.00000
           GY3              0.00002    -0.00001     0.00003     0.10006    -0.00000
           GZ3             -0.03811     0.00451     0.05337    -0.00002    -0.02826
           GX4              0.00004     0.00000    -0.00002    -0.08281     0.00000
           GY4              0.00002     0.00001    -0.00002    -0.04030     0.00000
           GZ4             -0.04676     0.09014    -0.01451     0.00002     0.04762
           GX5              0.00012    -0.00001    -0.00001    -0.05371     0.00000
           GY5             -0.00001     0.00000    -0.00002    -0.08397     0.00000
           GZ5              0.53288     0.33498    -0.30450     0.00002    -0.22413
           GX6              0.00005    -0.00002     0.00005     0.17349    -0.00000
           GY6              0.00004    -0.00000     0.00001     0.02970    -0.00000
           GZ6              0.38944     0.05499     0.58558    -0.00019     0.15267
           GX7              0.00003     0.00001    -0.00004    -0.17352     0.00000
           GY7             -0.00002    -0.00001     0.00002     0.02965    -0.00000
           GZ7              0.38944    -0.05499    -0.58558     0.00017     0.15267
           GX8              0.00014    -0.00002     0.00002     0.05367    -0.00000
           GY8             -0.00002     0.00002    -0.00004    -0.08394     0.00001
           GZ8              0.53288    -0.33498     0.30450    -0.00017    -0.22413
           GX9             -0.00009     0.00001    -0.00000    -0.00000     0.00000
           GY9             -0.00000     0.00001    -0.00002    -0.08222     0.00000
           GZ9              0.02192     0.00000    -0.00000    -0.00000    -0.00251
           GX10            -0.00013     0.00001    -0.00001    -0.00000     0.00000
           GY10             0.00000     0.00000    -0.00001    -0.02962    -0.00000
           GZ10            -0.02435    -0.00000    -0.00000     0.00000    -0.11684
           GX11            -0.00015     0.00001     0.00001     0.06383     0.00000
           GY11            -0.00000     0.00000     0.00000     0.00872    -0.00000
           GZ11             0.10338     0.53270     0.15489     0.00002     0.55191
           GX12            -0.00015     0.00002    -0.00002    -0.06382     0.00000
           GY12             0.00001     0.00000     0.00000     0.00872    -0.00000
           GZ12             0.10338    -0.53270    -0.15489    -0.00005     0.55191

                             11 A        12 A        13 A        14 A        15 A  
 Wavenumbers [cm-1]          863.15      927.66      980.87     1035.88     1118.56
 Intensities [km/mol]          1.18        7.46        3.03        1.52        2.60
 Intensities [relative]        0.82        5.22        2.12        1.06        1.82
           GX1             -0.00000     0.03860     0.00594    -0.00802     0.01689
           GY1              0.00001     0.15707     0.08295     0.07905    -0.00740
           GZ1              0.02286     0.00000    -0.00000     0.00000    -0.00000
           GX2             -0.00001    -0.02536    -0.00807     0.04659    -0.05169
           GY2             -0.00000    -0.01905    -0.01759     0.14287    -0.00551
           GZ2             -0.06294     0.00001    -0.00000     0.00000    -0.00000
           GX3              0.00001    -0.02537     0.00809     0.04659    -0.05172
           GY3             -0.00000     0.01906    -0.01760    -0.14288     0.00549
           GZ3             -0.06294     0.00000    -0.00000     0.00000    -0.00000
           GX4              0.00001     0.03857    -0.00596    -0.00803     0.01695
           GY4             -0.00001    -0.15704     0.08303    -0.07906     0.00747
           GZ4              0.02286     0.00000    -0.00000     0.00000    -0.00000
           GX5              0.00001     0.18296     0.11962    -0.16576     0.48193
           GY5              0.00001     0.21180     0.12560     0.03490     0.14490
           GZ5             -0.33035    -0.00002     0.00002    -0.00001     0.00000
           GX6             -0.00000     0.12649     0.04138    -0.07054    -0.29117
           GY6             -0.00001    -0.23577    -0.08677     0.33264     0.33095
           GZ6              0.48537    -0.00009     0.00003    -0.00002     0.00000
           GX7              0.00001     0.12647    -0.04144    -0.07052    -0.29152
           GY7              0.00001     0.23574    -0.08687    -0.33259    -0.33139
           GZ7              0.48537    -0.00001     0.00000    -0.00000    -0.00000
           GX8              0.00000     0.18285    -0.11971    -0.16583     0.48252
           GY8             -0.00001    -0.21174     0.12573    -0.03488    -0.14503
           GZ8             -0.33035    -0.00003     0.00002    -0.00001     0.00000
           GX9             -0.00000    -0.01439     0.00000    -0.00037    -0.00779
           GY9              0.00000    -0.00002    -0.05350     0.00001    -0.00000
           GZ9              0.04563    -0.00000     0.00000    -0.00000     0.00000
           GX10            -0.00000    -0.05193     0.00001    -0.02911     0.03483
           GY10             0.00000    -0.00003    -0.11487    -0.00000     0.00000
           GZ10             0.05260    -0.00000    -0.00000    -0.00000     0.00000
           GX11            -0.00001    -0.07156     0.48974    -0.04755     0.06260
           GY11            -0.00000    -0.00914     0.18502    -0.00881     0.01233
           GZ11            -0.26272     0.00005    -0.00001     0.00002    -0.00000
           GX12             0.00000    -0.07182    -0.48969    -0.04757     0.06263
           GY12            -0.00000     0.00923     0.18505     0.00882    -0.01234
           GZ12            -0.26272    -0.00002     0.00001    -0.00001     0.00000

                             16 A        17 A        18 A        19 A        20 A  
 Wavenumbers [cm-1]         1120.30     1281.22     1373.21     1396.89     1483.40
 Intensities [km/mol]          9.02        0.41        0.33       20.49        0.63
 Intensities [relative]        6.31        0.29        0.23       14.34        0.44
           GX1              0.04504     0.03665    -0.07396    -0.05973    -0.01776
           GY1             -0.05519    -0.02406    -0.09090    -0.04053     0.04600
           GZ1              0.00000     0.00000     0.00000    -0.00000     0.00000
           GX2             -0.02188     0.02407     0.00742     0.01307     0.05327
           GY2              0.02096    -0.03535     0.04944     0.10504    -0.07175
           GZ2              0.00000     0.00000     0.00000    -0.00000     0.00000
           GX3              0.02181    -0.02407    -0.00742     0.01306     0.05328
           GY3              0.02099    -0.03534     0.04950    -0.10501     0.07175
           GZ3              0.00000     0.00000     0.00000    -0.00000     0.00000
           GX4             -0.04502    -0.03665     0.07398    -0.05970    -0.01776
           GY4             -0.05516    -0.02406    -0.09092     0.04048    -0.04599
           GZ4              0.00000     0.00000     0.00000    -0.00000     0.00000
           GX5              0.47051    -0.34790     0.19295     0.28098    -0.12881
           GY5              0.08165    -0.15682    -0.00868     0.07593     0.02246
           GZ5             -0.00001    -0.00001    -0.00001     0.00000    -0.00000
           GX6             -0.25844    -0.18019     0.20028     0.25524    -0.07718
           GY6              0.35739     0.25902    -0.22798    -0.22391     0.12125
           GZ6             -0.00001    -0.00001    -0.00001     0.00000    -0.00000
           GX7              0.25808     0.18020    -0.20041     0.25518    -0.07718
           GY7              0.35697     0.25902    -0.22806     0.22382    -0.12123
           GZ7              0.00000     0.00000    -0.00000     0.00000    -0.00000
           GX8             -0.46989     0.34787    -0.19309     0.28090    -0.12880
           GY8              0.08152    -0.15684    -0.00864    -0.07596    -0.02245
           GZ8             -0.00000    -0.00001    -0.00001     0.00000    -0.00000
           GX9             -0.00000     0.00001     0.00002    -0.06558    -0.09287
           GY9              0.00389     0.15139     0.15407     0.00004    -0.00000
           GZ9             -0.00000    -0.00000    -0.00000     0.00000    -0.00000
           GX10             0.00002    -0.00000    -0.00001     0.02878    -0.01982
           GY10            -0.01128    -0.06137    -0.03986    -0.00001     0.00000
           GZ10            -0.00000     0.00000     0.00000    -0.00000    -0.00000
           GX11             0.04090     0.20589     0.14027     0.23911     0.45420
           GY11             0.01278     0.06928     0.05003     0.11353     0.27228
           GZ11             0.00001     0.00000     0.00000    -0.00000     0.00000
           GX12            -0.04081    -0.20589    -0.14034     0.23903     0.45420
           GY12             0.01277     0.06929     0.05007    -0.11352    -0.27231
           GZ12            -0.00000    -0.00000    -0.00000     0.00000    -0.00000

                             21 A        22 A        23 A        24 A        25 A  
 Wavenumbers [cm-1]         1537.99     1609.35     1707.58     3224.27     3282.23
 Intensities [km/mol]         24.72        0.18        2.80        4.96        1.85
 Intensities [relative]       17.30        0.13        1.96        3.47        1.30
           GX1              0.13373    -0.12026    -0.03883    -0.00017    -0.00740
           GY1             -0.02358     0.02426    -0.01320     0.00027     0.02717
           GZ1             -0.00000    -0.00000     0.00000    -0.00000     0.00000
           GX2             -0.10119     0.13457     0.00027    -0.00003    -0.04183
           GY2              0.05764    -0.05099     0.00046     0.00026    -0.02753
           GZ2             -0.00000    -0.00000     0.00000    -0.00000     0.00000
           GX3             -0.10120    -0.13457     0.00027    -0.00003     0.04184
           GY3             -0.05763    -0.05098    -0.00046    -0.00026    -0.02754
           GZ3             -0.00000    -0.00000     0.00000    -0.00000     0.00000
           GX4              0.13373     0.12026    -0.03883    -0.00017     0.00740
           GY4              0.02357     0.02425     0.01321    -0.00027     0.02718
           GZ4             -0.00000     0.00000    -0.00000    -0.00000     0.00000
           GX5             -0.12485     0.07291     0.08078     0.00281     0.10610
           GY5             -0.12480     0.11002     0.02135    -0.00362    -0.32115
           GZ5              0.00000     0.00000    -0.00000     0.00000    -0.00000
           GX6             -0.03095    -0.02978     0.00308     0.00191     0.48170
           GY6             -0.07039     0.22210    -0.00054     0.00049     0.33194
           GZ6              0.00001     0.00000    -0.00000     0.00000    -0.00000
           GX7             -0.03095     0.02980     0.00308     0.00190    -0.48176
           GY7              0.07040     0.22210     0.00054    -0.00048     0.33203
           GZ7              0.00000    -0.00000     0.00000     0.00000     0.00000
           GX8             -0.12486    -0.07290     0.08078     0.00281    -0.10614
           GY8              0.12481     0.11002    -0.02135     0.00362    -0.32121
           GZ8              0.00000    -0.00000    -0.00000     0.00000    -0.00000
           GX9             -0.02274    -0.00000     0.20792    -0.00795    -0.00000
           GY9              0.00000    -0.01314    -0.00001     0.00000    -0.00130
           GZ9              0.00000    -0.00000    -0.00000     0.00000    -0.00000
           GX10            -0.04922     0.00000    -0.16433     0.06564    -0.00000
           GY10             0.00000     0.01139     0.00001    -0.00000     0.00069
           GZ10             0.00000     0.00000     0.00000    -0.00000     0.00000
           GX11             0.19692    -0.02253     0.11591    -0.34608     0.00202
           GY11             0.14607    -0.00316     0.19269     0.59179    -0.00295
           GZ11            -0.00000    -0.00000     0.00000     0.00000     0.00000
           GX12             0.19690     0.02253     0.11590    -0.34612    -0.00202
           GY12            -0.14608    -0.00315    -0.19269    -0.59177    -0.00294
           GZ12             0.00000    -0.00000    -0.00000    -0.00000    -0.00000

                             26 A        27 A        28 A        29 A  
 Wavenumbers [cm-1]         3291.01     3306.69     3313.06     3325.71
 Intensities [km/mol]          5.36       12.69        5.59        5.56
 Intensities [relative]        3.75        8.88        3.91        3.89
           GX1              0.01122     0.01987     0.01760     0.00012
           GY1             -0.03832    -0.04926    -0.04243     0.00066
           GZ1             -0.00000    -0.00000    -0.00000     0.00000
           GX2              0.03382    -0.02866    -0.03742    -0.00014
           GY2              0.02562    -0.01398    -0.02366    -0.00015
           GZ2             -0.00000    -0.00000    -0.00000     0.00000
           GX3              0.03381     0.02866    -0.03741     0.00014
           GY3             -0.02562    -0.01399     0.02366    -0.00015
           GZ3             -0.00000    -0.00000    -0.00000     0.00000
           GX4              0.01122    -0.01988     0.01760    -0.00012
           GY4              0.03832    -0.04926     0.04243     0.00067
           GZ4              0.00000    -0.00000     0.00000     0.00000
           GX5             -0.14644    -0.18583    -0.15503     0.00233
           GY5              0.44298     0.55126     0.45850    -0.00153
           GZ5              0.00000     0.00000     0.00000    -0.00000
           GX6             -0.39927     0.27707     0.37937     0.00223
           GY6             -0.28027     0.18719     0.26341     0.00186
           GZ6              0.00000     0.00000     0.00000    -0.00000
           GX7             -0.39916    -0.27711     0.37930    -0.00222
           GY7              0.28023     0.18724    -0.26341     0.00185
           GZ7              0.00000     0.00000    -0.00000    -0.00000
           GX8             -0.14646     0.18588    -0.15504    -0.00234
           GY8             -0.44293     0.55129    -0.45843    -0.00153
           GZ8             -0.00000     0.00000    -0.00000    -0.00000
           GX9              0.00190    -0.00000     0.00268    -0.00000
           GY9             -0.00000     0.00290    -0.00000    -0.00158
           GZ9              0.00000     0.00000     0.00000    -0.00000
           GX10             0.00018     0.00000    -0.00021    -0.00000
           GY10             0.00000    -0.00045     0.00000    -0.09460
           GZ10            -0.00000     0.00000    -0.00000    -0.00000
           GX11            -0.00347    -0.00024    -0.00283    -0.34880
           GY11             0.00305     0.00052     0.00119     0.56660
           GZ11            -0.00000     0.00000    -0.00000     0.00000
           GX12            -0.00348     0.00024    -0.00283     0.34883
           GY12            -0.00305     0.00052    -0.00119     0.56658
           GZ12             0.00000    -0.00000     0.00000     0.00000


 Normal Modes of imaginary frequencies

                                  1
 Wavenumbers [cm-1]            7.73
 Intensities [km/mol]          2.60
 Intensities [relative]        1.82
           GX1              0.00000
           GY1              0.00000
           GZ1              0.06899
           GX2              0.00000
           GY2              0.00000
           GZ2             -0.06613
           GX3             -0.00000
           GY3              0.00000
           GZ3             -0.06613
           GX4             -0.00000
           GY4             -0.00000
           GZ4              0.06899
           GX5              0.00000
           GY5              0.00000
           GZ5              0.10423
           GX6              0.00000
           GY6             -0.00000
           GZ6             -0.18269
           GX7             -0.00000
           GY7              0.00000
           GZ7             -0.18269
           GX8             -0.00000
           GY8             -0.00000
           GZ8              0.10423
           GX9              0.00000
           GY9              0.00000
           GZ9              0.17895
           GX10             0.00000
           GY10            -0.00000
           GZ10            -0.13965
           GX11            -0.00000
           GY11            -0.00000
           GZ11            -0.18971
           GX12             0.00000
           GY12            -0.00000
           GZ12            -0.18971


 Normal Modes of low/zero frequencies

                                  1           2           3           4           5
 Wavenumbers [cm-1]            0.00        0.00        0.00        0.00        0.00
 Intensities [km/mol]          0.00        0.00        0.00        0.00        0.00
 Intensities [relative]        0.00        0.00        0.00        0.00        0.00
           GX1              0.13660     0.00616    -0.01998    -0.02317     0.00671
           GY1              0.00292     0.02168     0.06938     0.00886    -0.06666
           GZ1              0.03994    -0.07939     0.10843     0.09786     0.05451
           GX2              0.11721    -0.01639    -0.02226    -0.02220    -0.00050
           GY2             -0.05340    -0.04383     0.06275     0.01168    -0.08760
           GZ2              0.01817    -0.06080     0.12199     0.03338     0.12596
           GX3              0.05303    -0.09104    -0.02980    -0.01899    -0.02436
           GY3             -0.05340    -0.04383     0.06275     0.01168    -0.08760
           GZ3             -0.01811     0.02298     0.00921     0.01997     0.12985
           GX4              0.03364    -0.11359    -0.03208    -0.01802    -0.03156
           GY4              0.00292     0.02168     0.06938     0.00886    -0.06666
           GZ4             -0.01828     0.05502    -0.07250     0.07635     0.06076
           GX5              0.18135     0.05821    -0.01472    -0.02541     0.02335
           GY5              0.01793     0.03913     0.07114     0.00811    -0.06108
           GZ5              0.06812    -0.13602     0.17437     0.12331     0.03307
           GX6              0.14411     0.01490    -0.01910    -0.02355     0.00951
           GY6             -0.09221    -0.08898     0.05819     0.01362    -0.10203
           GZ6              0.02595    -0.10057     0.20211    -0.00264     0.17275
           GX7              0.02612    -0.12234    -0.03297    -0.01765    -0.03436
           GY7             -0.09221    -0.08897     0.05819     0.01362    -0.10203
           GZ7             -0.04077     0.05347    -0.00525    -0.02729     0.17990
           GX8             -0.01111    -0.16564    -0.03734    -0.01578    -0.04820
           GY8              0.01794     0.03914     0.07114     0.00811    -0.06108
           GZ8             -0.04070     0.11524    -0.16383     0.08310     0.04474
           GX9              0.08512    -0.05371    -0.02603    -0.02060    -0.01242
           GY9              0.04119     0.06619     0.07388     0.00695    -0.05243
           GZ9              0.01817    -0.00761    -0.01441     0.12816     0.00989
           GX10             0.08512    -0.05371    -0.02603    -0.02060    -0.01242
           GY10             0.10028     0.13491     0.08082     0.00399    -0.03047
           GZ10             0.02950    -0.00055    -0.06438     0.19156    -0.06383
           GX11             0.12556    -0.00668    -0.02128    -0.02262     0.00261
           GY11             0.12482     0.16345     0.08371     0.00277    -0.02134
           GZ11             0.05706    -0.05041    -0.01408     0.22633    -0.09689
           GX12             0.04469    -0.10074    -0.03079    -0.01857    -0.02746
           GY12             0.12482     0.16345     0.08371     0.00277    -0.02134
           GZ12             0.01134     0.05517    -0.15619     0.20943    -0.09199

                                  6
 Wavenumbers [cm-1]            0.00
 Intensities [km/mol]          0.00
 Intensities [relative]        0.00
           GX1              0.01573
           GY1              0.05518
           GZ1             -0.05711
           GX2              0.02397
           GY2              0.07913
           GZ2              0.01635
           GX3              0.05126
           GY3              0.07913
           GZ3              0.13400
           GX4              0.05950
           GY4              0.05518
           GZ4              0.13163
           GX5             -0.00330
           GY5              0.04880
           GZ5             -0.14925
           GX6              0.01253
           GY6              0.09563
           GZ6             -0.00685
           GX7              0.06270
           GY7              0.09563
           GZ7              0.20946
           GX8              0.07853
           GY8              0.04880
           GZ8              0.20356
           GX9              0.03762
           GY9              0.03891
           GZ9              0.01149
           GX10             0.03762
           GY10             0.01379
           GZ10            -0.02828
           GX11             0.02042
           GY11             0.00336
           GZ11            -0.11893
           GX12             0.05481
           GY12             0.00336
           GZ12             0.02933


 FREQUENCIES * CALCULATION OF THERMODYNAMICAL PROPERTIES

 Temperature   298.150 [K]  Pressure   1.00000 [atm]
 Atom  1: C         Mass  12.01100
 Atom  2: C         Mass  12.01100
 Atom  3: C         Mass  12.01100
 Atom  4: C         Mass  12.01100
 Atom  5: H         Mass   1.00794
 Atom  6: H         Mass   1.00794
 Atom  7: H         Mass   1.00794
 Atom  8: H         Mass   1.00794
 Atom  9: C         Mass  12.01100
 Atom 10: C         Mass  12.01100
 Atom 11: H         Mass   1.00794
 Atom 12: H         Mass   1.00794

 Molecular Mass:    78.11364 [a.u.]
 Moments of Inertia         476.95202   696.80076   219.84874 [a.u.]
 Point Group C1    Order of principal axis 1
 Rotational Symmetry factor  1.0
 WARNING: Low Rotational Temperature. Assumption of Classical Rotation may not be valid any more!
 Rotational Temperatures      0.18160     0.12430     0.39396 [K]
 Rotational Constants         3.78385     2.59000     8.20889 [GHz]
 WARNING:    1 Imaginary Frequencies ignored.

 WARNING: Using the   3 Vibrational Modes  with wavenumbers below 1000 [1/cm]
 may cause significant error at T =     298.150 [K]: Use 0.5*RT instead.

 Vibrational Temperatures [K]    485.77   606.30   658.01   899.27   976.77
                                 988.75  1065.23  1156.38  1171.71  1197.40
                                1241.88  1334.68  1411.24  1490.39  1609.35
                                1611.85  1843.39  1975.73  2009.80  2134.26
                                2212.81  2315.49  2456.81  4638.98  4722.37
                                4735.00  4757.56  4766.73  4784.92

 Zero-Point vibrational Energy      254.669 [kJ/Mol]
                                     60.867 [kcal/Mol]

 Electronic Energy at 0 [K]:                      -231.452943 [H]
 Electronic Energy + Zero-Point correction:       -231.355945 [H]
 Electronic Energy at     298.150 [K]:            -231.351215 [H]
 Enthalpy H at            298.150 [K]:            -231.350271 [H]
 Free Enthalpy G at       298.150 [K]:            -231.383651 [H]

 Partition Function  Z                 log10(Z)          ln(Z)
 Electronic      0.100000D+01          0.000000          0.000000
 Translation     0.271369D+08          7.433561         17.116406
 Rotation        0.967638D+05          4.985713         11.480028
 Vibration       0.210971D+01          0.324223          0.746552
 Vibration    1  0.124389D+01          0.094782          0.218244
 Vibration    2  0.115058D+01          0.060916          0.140264
 Vibration    3  0.112364D+01          0.050627          0.116573
 Total           0.553984D+13         12.743497         28.596434

                       H(T)-H(0)              Cv                 S
                       [kJ/Mol]          [J/Mol K]          [J/Mol K] 
 Electronic               0.000              0.000              0.000
 Translation              3.718             12.472            163.101
 Rotation                 3.718             12.472            107.923
 Vibration                4.983             52.679             22.919
 Vibration  1             3.005              6.696              5.118
 Vibration  2             3.280              5.957              3.712
 Vibration  3             3.412              5.626              3.238
 Volume (RT)              2.479              0.000              0.000
 Total                   14.899             77.623            293.943

 Thermal energies including ZPE:

 H(T)-E(0)              269.567 kJ/Mol
 U(T)-E(0)              267.088 kJ/Mol

                       H(T)-H(0)              Cv                 S
                       [kcal/Mol]        [cal/Mol K]        [cal/Mol K] 
 Electronic               0.000              0.000              0.000
 Translation              0.889              2.981             38.982
 Rotation                 0.889              2.981             25.794
 Vibration                1.191             12.591              5.478
 Vibration  1             0.718              1.600              1.223
 Vibration  2             0.784              1.424              0.887
 Vibration  3             0.815              1.345              0.774
 Volume (RT)              0.592              0.000              0.000
 Total                    3.561             18.552             70.254

 Thermal energies including ZPE:

 H(T)-E(0)               64.428 kcal/Mol
 U(T)-E(0)               63.836 kcal/Mol
 Frequency information read from record  5401.2

 Dump information in style MOLDEN to fulvene.molden                                                                  

 Molecular orbitals read from record     2100.2  Type=RHF/CANONICAL (state 1.1)
 Occupation numbers read from record     2100.2  Type=RHF/RHF (state 1.1)
 Orbital energies read from record       2100.2  Type=RHF/CANONICAL (state 1.1)
 Redundancy group numbers read from rec  2100.2  Type=RHF/RHF (state 1.1)
 
 DUMP ORBITAL  1.1 AS ORBITAL    1  occ=    2.0000  eig=  -11.2593  GROUP=   2
 DUMP ORBITAL  2.1 AS ORBITAL    2  occ=    2.0000  eig=  -11.2504  GROUP=   2
 DUMP ORBITAL  3.1 AS ORBITAL    3  occ=    2.0000  eig=  -11.2393  GROUP=   2
 DUMP ORBITAL  4.1 AS ORBITAL    4  occ=    2.0000  eig=  -11.2386  GROUP=   2
 DUMP ORBITAL  5.1 AS ORBITAL    5  occ=    2.0000  eig=  -11.2331  GROUP=   2
 DUMP ORBITAL  6.1 AS ORBITAL    6  occ=    2.0000  eig=  -11.2330  GROUP=   2
 DUMP ORBITAL  7.1 AS ORBITAL    7  occ=    2.0000  eig=   -1.1633  GROUP=   2
 DUMP ORBITAL  8.1 AS ORBITAL    8  occ=    2.0000  eig=   -1.0271  GROUP=   2
 DUMP ORBITAL  9.1 AS ORBITAL    9  occ=    2.0000  eig=   -0.9683  GROUP=   2
 DUMP ORBITAL 10.1 AS ORBITAL   10  occ=    2.0000  eig=   -0.8648  GROUP=   2
 DUMP ORBITAL 11.1 AS ORBITAL   11  occ=    2.0000  eig=   -0.7454  GROUP=   2
 DUMP ORBITAL 12.1 AS ORBITAL   12  occ=    2.0000  eig=   -0.7272  GROUP=   2
 DUMP ORBITAL 13.1 AS ORBITAL   13  occ=    2.0000  eig=   -0.6880  GROUP=   2
 DUMP ORBITAL 14.1 AS ORBITAL   14  occ=    2.0000  eig=   -0.6104  GROUP=   2
 DUMP ORBITAL 15.1 AS ORBITAL   15  occ=    2.0000  eig=   -0.5641  GROUP=   2
 DUMP ORBITAL 16.1 AS ORBITAL   16  occ=    2.0000  eig=   -0.5546  GROUP=   2
 DUMP ORBITAL 17.1 AS ORBITAL   17  occ=    2.0000  eig=   -0.5242  GROUP=   2
 DUMP ORBITAL 18.1 AS ORBITAL   18  occ=    2.0000  eig=   -0.5001  GROUP=   2
 DUMP ORBITAL 19.1 AS ORBITAL   19  occ=    2.0000  eig=   -0.4945  GROUP=   2
 DUMP ORBITAL 20.1 AS ORBITAL   20  occ=    2.0000  eig=   -0.3418  GROUP=   2
 DUMP ORBITAL 21.1 AS ORBITAL   21  occ=    2.0000  eig=   -0.3058  GROUP=   2

 Total charge:      42.000000
 Frequency information read from record  5401.2

 **********************************************************************************************************************************

       OPTG(MP2)        MP2             OPTG(HF)        HF-SCF  
   -231.45294346   -231.45053541   -230.66395416   -230.65866801
 **********************************************************************************************************************************
 Variable memory released
